# p  FACE_DATA 1436
# x  y  z  p
-0.01592896667 -0.01653226667 -1 702727.6764
0.01657313333 0.0160208 -1 702247.4228
-0.01359063333 0.0128176 -1 702549.192
-0.01482033333 0.01432873333 -1 702435.8435
0.01211303667 0.01419776667 -1 702474.0137
0.01388393333 0.0126157 -1 702503.4564
0.001551908 0.00029166 -1 702830.5279
-0.0007156886667 -0.00105012 -1 702845.3016
-0.008560706667 -0.0216334 -1 702775.7075
0.003726083333 -0.02337806667 -1 703045.3964
-0.001686294667 -0.02345993333 -1 702825.3112
-0.02261056667 -0.006060163333 -1 702515.6032
-0.02299816667 -0.004418926667 -1 702542.3834
-0.02246676667 0.005203306667 -1 702362.2755
-0.02320146667 0.00279448 -1 702476.8506
-0.00498936 0.0229274 -1 702070.1786
-0.003743463333 0.02230256667 -1 702274.4479
0.004729936667 0.02282936667 -1 702153.7116
-0.0003052272667 0.02244516667 -1 702294.3033
0.0008993827333 0.0232875 -1 702217.4824
0.0033239 0.02235963333 -1 702303.141
0.00805101 0.02213043333 -1 702134.7642
-0.003047013333 0.02294196667 -1 702249.8199
0.02315596667 0.001468849 -1 702408.2703
-0.006040296667 -0.01846966667 -1 702948.3149
-0.008658103333 -0.02018026667 -1 702991.2975
-0.01128343 -0.01875673333 -1 702943.9595
-0.01064229667 -0.0168819 -1 702913.2379
-0.008939163333 -0.016511 -1 702930.9911
-0.002640472 -0.0196662 -1 703072.6256
-0.001521776667 -0.02118863333 -1 702960.9023
-0.0007416493667 -0.0235195 -1 702959.1833
-0.002363281333 -0.02268506667 -1 702867.7069
-0.005385393333 -0.02187766667 -1 702835.0409
-0.01372963333 -0.01867993333 -1 702753.1863
-0.01551826667 -0.01773573333 -1 702549.3627
-0.01233753333 -0.01583263333 -1 702896.3996
-0.01393723333 -0.01649033333 -1 702883.9672
-0.0165166 -0.016559 -1 702694.7636
-0.01530713333 -0.01555403333 -1 702798.5604
-0.01255346667 -0.01380173333 -1 702902.2373
-0.01466716667 -0.0130684 -1 702873.3066
-0.01582113333 -0.014163 -1 702779.3913
-0.006241333333 -0.01460193333 -1 702998.0747
-0.008293616667 -0.01477683333 -1 702849.0609
-0.01107326 -0.01256973333 -1 702875.8064
-0.008040483333 -0.01088154 -1 702914.3059
-0.009153743333 -0.01293456667 -1 702882.4753
-0.01489666667 -0.01103637333 -1 702803.7264
-0.01666883333 -0.01048500667 -1 702829.3719
-0.009315633333 -0.00919478 -1 702889.7621
-0.01128879333 -0.01015660667 -1 702842.7508
-0.0129985 -0.00935658 -1 702859.2923
-0.01331833333 -0.007017463333 -1 702886.486
-0.01715733333 -0.008150286667 -1 702729.1404
-0.015705 -0.006362536667 -1 702779.9027
-0.02332943333 0.001398023333 -1 702573.6751
-0.02321333333 -0.002317283333 -1 702532.1011
-0.0233015 -0.001052146667 -1 702581.75
-0.022495 -0.00328184 -1 702623.2202
-0.02207146667 0.003993153333 -1 702496.2968
-0.02270326667 0.00026796 -1 702661.3621
-0.02108106667 -0.00289455 -1 702677.4456
-0.01981813333 -0.00435292 -1 702733.2066
0.01496203333 -0.002770838667 -1 702764.179
0.01880986667 -0.00754393 -1 702653.7983
0.01756106667 -0.006321716667 -1 702773.9794
0.01862416667 -0.009368483333 -1 702780.4625
0.02011306667 -0.01006252333 -1 702812.5826
0.0168075 -0.01083792667 -1 702866.7342
0.0203416 -0.01137893333 -1 702732.456
0.02301863333 0.002832003333 -1 702437.4471
0.02222336667 0.003871473333 -1 702359.2054
0.01717916667 -0.002487185333 -1 702752.3193
0.01834126667 -0.004197446667 -1 702685.1013
0.01978043333 0.0002927566667 -1 702629.0636
0.01789906667 -0.000560062 -1 702706.573
0.02349526667 -0.001601916 -1 702343.1575
0.02120653333 -0.0006361033333 -1 702573.5817
0.02273233333 0.0001634756667 -1 702510.5305
0.0235328 -0.0007296303333 -1 702431.7893
0.022801 -0.003308676667 -1 702544.437
0.020302 -0.004192863333 -1 702740.2853
0.02137396667 -0.00275453 -1 702657.9774
0.01875806667 -0.01301643333 -1 702786.2911
0.01698396667 -0.01274003333 -1 702917.3303
0.01668933333 -0.01551156667 -1 702762.7637
0.01561256667 -0.01435653333 -1 702872.8057
0.01645603333 -0.01647973333 -1 702774.9801
0.01379646667 -0.01512173333 -1 702851.317
0.01095759333 -0.01844986667 -1 702929.4377
0.0123613 -0.01864116667 -1 702892.3121
0.0134755 -0.0183751 -1 702908.0413
0.0152862 -0.006901776667 -1 702843.5408
0.01384926667 -0.00506116 -1 702865.9605
0.01471833333 -0.009593433333 -1 702888.3635
0.0123352 -0.01378586667 -1 702930.1575
0.01028757 -0.00951642 -1 702907.9204
0.01247926667 -0.01086707333 -1 702935.1335
0.00986414 -0.01715226667 -1 703046.8218
0.01022911333 -0.0148173 -1 702968.7482
0.00821159 -0.01105531333 -1 702953.6267
0.0082972 -0.0134374 -1 703003.9517
0.006265606667 -0.01450466667 -1 703042.9835
0.004687583333 -0.01335726667 -1 702940.7488
0.00624855 -0.01661663333 -1 703042.4149
0.00791517 -0.01788433333 -1 702977.3554
0.00457589 -0.0176349 -1 702967.0902
0.001719268 -0.02001463333 -1 703035.9137
0.0004626566667 -0.02127856667 -1 703084.1815
0.001390178633 -0.0232679 -1 702968.1319
0.003199173333 -0.0227858 -1 703102.9451
0.0005657973 -0.02283456667 -1 703036.9916
0.00487693 -0.01960023333 -1 703023.168
0.003568583333 -0.02068953333 -1 703044.0883
-0.001880585333 -0.0177058 -1 702975.1414
-0.003172333333 -0.0160694 -1 703017.393
-0.002349483333 -0.01419343333 -1 702989.3928
-0.0005302333333 -0.01400073333 -1 703003.6214
0.002967696667 -0.0138721 -1 702966.2927
0.00291957 -0.0169554 -1 703006.7859
0.0004186466667 -0.01538533333 -1 702947.8938
0.001371294667 -0.01824583333 -1 702925.3576
-0.0001088553333 -0.01721443333 -1 703014.6127
0.002269483333 -0.0152879 -1 702934.8821
-0.00161266 0.01355823333 -1 702536.6916
0.02069983333 0.00378931 -1 702505.166
0.01964536667 0.002373326667 -1 702583.1776
0.01145931 -0.00502932 -1 702802.6902
0.009841946667 -0.006939323333 -1 702939.3338
0.01389926667 -0.0009581926667 -1 702785.7447
0.014952 0.0009265173333 -1 702693.4259
0.01673466667 0.001040994667 -1 702712.7135
0.0004044566667 -0.005242376667 -1 702860.3494
-0.001054623333 -0.003604986667 -1 702898.7545
0.004662493333 -0.01135441667 -1 702973.2896
0.006154906667 -0.01011973 -1 703007.3698
0.00226098 -0.009115306667 -1 702955.5098
0.002929886667 -0.01081881667 -1 703026.8503
0.00028711 -0.0123142 -1 702975.6916
0.001934203333 -0.012283 -1 702873.6494
0.01187578667 -0.0009089336667 -1 702756.4309
0.01054859667 -0.002689739667 -1 702805.5807
0.01116812 0.0008222796667 -1 702784.2194
0.00940542 0.001211087 -1 702754.3675
0.009375046667 0.003102186667 -1 702704.8537
0.00790402 -9.6143e-05 -1 702790.7805
0.0059032 0.0006913966667 -1 702805.7482
0.003851203333 -0.00087836 -1 702788.3958
0.00833953 -0.002265756333 -1 702813.5851
-0.005257603333 -0.01267916667 -1 702971.0202
-0.006196626667 -0.01080104 -1 702985.9188
-0.003348056667 -0.01257096667 -1 703025.7221
-0.005110013333 -0.009207193333 -1 702869.4248
0.0003536266667 -0.00900402 -1 702948.5028
-0.00062645 -0.00737246 -1 702882.6508
-0.002440476667 -0.01080279667 -1 702970.157
-0.00242757 -0.007621523333 -1 702906.4949
-0.00326341 -0.00931715 -1 702983.1446
-0.00062456 -0.01073873 -1 702981.5124
-0.004851666667 -0.001367041667 -1 702768.989
-0.002887855333 0.000132795 -1 702845.7856
-0.003153502 0.002211918333 -1 702754.384
-0.01172206667 -0.005270406667 -1 702795.5561
-0.008717683333 -0.00735423 -1 702854.8169
-0.009745343333 -0.005586706667 -1 702846.3985
-0.00827595 -0.00389521 -1 702705.5092
-0.005136056667 0.00488452 -1 702646.253
-0.005198543333 0.002852951667 -1 702768.0216
-0.008501503333 -0.00193893 -1 702748.0801
-0.0067685 -0.0005034116667 -1 702686.283
-0.00684973 0.001637458333 -1 702783.9616
-0.0201527 -0.0008378133333 -1 702679.1298
-0.02103766667 0.0006452366667 -1 702687.2004
-0.01879823333 0.004025293333 -1 702576.7888
-0.02053383333 0.002973973333 -1 702638.9411
-0.01694366667 0.002885116667 -1 702677.2163
-0.01045813 -0.001265709333 -1 702853.2051
-0.0122093 -0.002905689333 -1 702811.7978
-0.01801696667 -0.003282936667 -1 702695.6746
-0.01460493333 -1.568266667e-05 -1 702720.2075
-0.0182706 -0.0009383466667 -1 702643.7079
-0.016758 0.0006191166667 -1 702663.3648
-0.01617736667 -0.00401014 -1 702783.0727
-0.01427793333 -0.002300349333 -1 702760.9021
0.00531689 0.0195265 -1 702410.0518
0.0016994 0.0133476 -1 702534.4065
1.231333333e-05 0.0144302 -1 702565.8217
0.00759376 0.0165977 -1 702438.6487
0.00359044 0.0143401 -1 702565.6234
0.003608116667 0.01645466667 -1 702498.1872
0.005423266667 0.01752133333 -1 702402.4605
0.009174916667 0.0175885 -1 702353.317
0.006951133333 0.0204055 -1 702368.987
0.006017013333 0.02250693333 -1 702165.8035
0.009375453333 0.02161723333 -1 702219.32
0.009813053333 0.02033233333 -1 702335.436
-0.004147476667 0.02093773333 -1 702327.5827
0.0033031 0.02063323333 -1 702435.0234
0.002109943333 0.02319 -1 702174.0728
-0.001216793933 0.02311783333 -1 702211.5653
-0.002165013333 0.02304723333 -1 702226.4481
-0.0003137876667 0.02059146667 -1 702372.6792
1.406566667e-05 0.0164327 -1 702535.5086
0.001718829 0.01746466667 -1 702414.419
0.001520189 0.01963806667 -1 702374.3347
-0.001710537667 0.01930336667 -1 702311.2195
-0.003473516667 0.0196642 -1 702365.5019
-0.001581324333 0.017318 -1 702431.4798
0.0186613 0.01409076667 -1 702272.5858
0.01797213333 0.0149675 -1 702191.4044
0.014122 0.01726563333 -1 702344.8157
0.01237703667 0.01633843333 -1 702412.2923
0.01265513333 0.01953446667 -1 702171.4424
0.01675866667 0.01492393333 -1 702349.9371
0.0159405 0.0132312 -1 702476.5988
0.01605803333 0.0165406 -1 702217.4853
0.0115347 0.0190973 -1 702177.961
0.01545686667 0.01708663333 -1 702248.1654
0.01083443667 0.0174526 -1 702325.1524
0.01369983333 0.01881696667 -1 702266.8732
0.01113561333 0.003860196667 -1 702658.4637
0.01221476667 0.002462292667 -1 702700.8769
0.01397516667 0.002615789333 -1 702751.4658
0.0177626 0.002704026667 -1 702622.1543
0.005435856667 0.01322363333 -1 702536.1452
0.007624026667 0.01441456667 -1 702498.7778
0.00957865 0.01319953333 -1 702470.5909
0.00519824 0.01100212 -1 702544.5069
0.009131983333 0.01076049 -1 702560.061
0.006939743333 0.00975401 -1 702638.7328
0.01082733667 0.00937291 -1 702583.0643
0.0130449 0.01022988667 -1 702598.1926
0.01027651667 0.007121816667 -1 702677.0117
0.01172448 0.00572748 -1 702593.6782
0.001484606667 0.01125236667 -1 702548.1878
0.00313803 0.01002335333 -1 702664.2647
-0.00185089 0.01164496667 -1 702462.0699
-0.00044071 0.0104217 -1 702568.8344
-0.001948985333 0.003991143333 -1 702714.997
-0.00084906 0.00833136 -1 702638.1815
-0.003285566667 0.00567432 -1 702685.5202
-0.00281964 0.00760123 -1 702662.5756
0.00070818 0.00692316 -1 702745.4061
7.418133333e-05 0.004509853333 -1 702782.875
0.001806928 0.003023006667 -1 702770.4798
0.002769953333 0.007784486667 -1 702656.3671
0.0139393 0.00633644 -1 702615.355
0.01511083333 0.004622653333 -1 702611.6588
0.0147089 0.008587753333 -1 702518.7178
0.0171156 0.004596413333 -1 702626.7348
0.020235 0.005640163333 -1 702404.2686
0.01853353333 0.006116566667 -1 702514.9738
0.0169735 0.0094678 -1 702508.9469
0.01859726667 0.008230886667 -1 702425.454
0.0188734 0.01254143333 -1 702283.2914
0.02166263333 0.00810798 -1 702345.9378
0.02049576667 0.01107403333 -1 702343.5021
0.02049373333 0.00904946 -1 702428.0475
0.01736606667 0.01172543333 -1 702425.7098
0.02200646667 0.00712847 -1 702349.558
-0.004384243333 0.009150303333 -1 702659.8427
-0.003823843333 0.0111037 -1 702621.9147
-0.003324166667 0.01635176667 -1 702531.8442
-0.00668175 0.01794023333 -1 702446.8652
-0.004580703333 0.01771476667 -1 702416.913
-0.00335375 0.0145945 -1 702528.7657
-0.004822013333 0.0130529 -1 702544.2011
-0.006840893333 0.0133211 -1 702498.6498
-0.01038063 0.01588596667 -1 702509.249
-0.01135782333 0.01335393333 -1 702546.3674
-0.007929383333 0.0159605 -1 702495.1466
-0.01141897333 0.01752526667 -1 702388.8902
-0.0162952 0.01683946667 -1 702238.1534
-0.01525533333 0.01697493333 -1 702287.7497
-0.01246923333 0.019786 -1 702158.1596
-0.01072749667 0.001121180667 -1 702779.1519
-0.0088521 0.00258883 -1 702726.963
-0.01280566667 0.001765867333 -1 702719.6018
-0.0152265 0.00424537 -1 702603.8489
-0.01324156667 0.00376092 -1 702690.7197
-0.008201263333 0.0114885 -1 702555.7148
-0.01026694667 0.01159586667 -1 702530.4793
-0.006639943333 0.00595886 -1 702737.0379
-0.0087048 0.004878663333 -1 702662.4859
-0.007905136667 0.009339396667 -1 702635.5494
-0.006354056667 0.008297733333 -1 702631.2465
-0.01211686667 0.005560986667 -1 702658.0805
-0.01107159 0.009601683333 -1 702644.9428
-0.009745686667 0.00827008 -1 702639.186
-0.01025946333 0.00614822 -1 702736.4655
-0.01337553333 0.00709002 -1 702623.9126
-0.01284403333 0.009008856667 -1 702599.0289
-0.0142722 0.01046670667 -1 702556.2235
-0.0151622 0.00626686 -1 702538.4388
-0.01643266667 0.009325663333 -1 702576.9708
-0.01871003333 0.00616334 -1 702565.954
-0.01679116667 0.007044653333 -1 702572.3496
-0.0179603 0.01030389 -1 702505.4763
-0.016343 0.0137329 -1 702367.6301
-0.01884316667 0.01269446667 -1 702305.5682
0.008638666667 0.01939113333 -1 702329.3193
0.01104956667 0.0201744 -1 702245.049
0.02091826667 0.01019064 -1 702369.8261
0.0199548 0.01198576667 -1 702269.4468
-0.005921903333 0.02270116667 -1 702125.1974
-0.00731551 0.0198184 -1 702405.3516
-0.005888423333 0.02086646667 -1 702325.9342
-0.006416953333 0.02200506667 -1 702150.9642
-0.01114254 0.019377 -1 702328.8621
-0.009742493333 0.0208073 -1 702354.7931
-0.01056560667 0.02039946667 -1 702358.7486
-0.01415643333 0.01613176667 -1 702342.042
-0.01691153333 0.01622546667 -1 702232.7638
-0.0131311 0.01862283333 -1 702222.4535
-0.00745474 0.02223253333 -1 702147.2554
-0.008647073333 0.02067636667 -1 702324.4131
-0.008257773333 0.0219519 -1 702185.0961
-0.02062966667 0.01020365667 -1 702402.7935
-0.0200076 0.01218186667 -1 702233.0803
-0.0200558 0.007462906667 -1 702591.2203
-0.02198623333 0.00693933 -1 702367.656
-0.01966456667 0.009322446667 -1 702479.2444
-0.02188006667 0.008824603333 -1 702348.2119
-0.02056316667 0.01119113333 -1 702339.97
-0.02158 0.009515293333 -1 702313.4484
-0.01425923333 -0.01773866667 -1 702810.9787
-0.01084256333 -0.0199438 -1 702950.3294
-0.004504563333 -0.02284223333 -1 702775.6172
-0.003580836667 -0.02301086667 -1 702780.3243
-0.007605313333 -0.02198253333 -1 702825.3396
-0.00777254 -0.01843606667 -1 702969.2445
-0.01920386667 -0.007800873333 -1 702612.5024
-0.020356 -0.006087533333 -1 702622.7194
-0.02189976667 -0.006600163333 -1 702572.8516
-0.01727063333 -0.0142765 -1 702780.3061
-0.01835243333 -0.0119934 -1 702759.4442
-0.02044916667 -0.00913407 -1 702663.9767
-0.01705166667 -0.01602383333 -1 702663.5369
-0.017595 -0.01541143333 -1 702558.5481
-0.01845103333 -0.013708 -1 702804.2491
-0.02183756667 -0.008597846667 -1 702508.2221
-0.0197076 -0.01174066667 -1 702652.9655
-0.0205738 -0.01017324333 -1 702692.614
0.0202657 -0.007015363333 -1 702589.8932
0.02225806667 -0.00750208 -1 702513.0173
0.02097763333 -0.005788566667 -1 702568.02
0.0224772 -0.006806 -1 702489.5135
0.02152273333 -0.008612823333 -1 702575.8471
0.0179744 -0.01514813333 -1 702708.8941
0.015886 -0.0170437 -1 702754.8302
0.01867173333 -0.0142695 -1 702821.5632
0.0197642 -0.01238133333 -1 702659.8858
0.02129063333 -0.007822943333 -1 702588.3647
0.0212074 -0.00933083 -1 702697.4898
0.00593675 -0.0225258 -1 703013.0035
0.00782603 -0.0221214 -1 702913.7134
0.00776417 -0.019654 -1 703008.8302
0.00639859 -0.02035163333 -1 703106.2068
0.0066552 -0.021777 -1 702975.3028
0.01046142667 -0.020145 -1 703049.8389
0.00887399 -0.02078086667 -1 702992.032
0.00867924 -0.0218229 -1 702906.8705
0.01134866667 -0.0206751 -1 702964.7717
0.009857876667 -0.02092216667 -1 703017.1768
0.0151818 -0.01765643333 -1 702739.7725
0.01389803333 -0.0171847 -1 702867.069
0.01228413333 -0.02011256667 -1 702842.4535
-0.02019516667 -0.01092203333 -1 702689.1321
-0.02213603333 -0.00777728 -1 702461.5034
-0.01497173333 0.01797233333 -1 702148.5731
-0.01862206667 0.01398463333 -1 702294.5374
-0.0170089 0.01507653333 -1 702293.4354
0.008200073333 0.00623519 -1 702638.7876
0.004120046667 0.004140873333 -1 702723.8055
0.00788747 0.004082843333 -1 702677.5969
0.006558653333 0.007479803333 -1 702683.3149
0.005917023333 0.002979283333 -1 702720.0235
0.004449073333 0.006489046667 -1 702682.4954
-0.006732176667 -0.006615256667 -1 702875.0547
-0.00327542 -0.00452604 -1 702890.8797
-0.006591576667 -0.00456366 -1 702827.6939
-0.005382936667 -0.00740906 -1 702828.2002
-0.004900296667 -0.00347101 -1 702827.6267
-0.00361746 -0.006412493333 -1 702949.4959
0.005701736667 -0.007911023333 -1 702912.5443
0.004233586667 -0.003335666667 -1 702907.746
0.003540416667 -0.0074422 -1 702860.6061
0.007312796667 -0.00626951 -1 702950.9177
0.00266397 -0.00520083 -1 702862.3118
0.006721093333 -0.003935523333 -1 702930.4592
-0.0127676 -0.0193479 -1 702714.7036
-0.005154636667 -0.0163697 -1 702942.4607
-0.00481788 -0.02012976667 -1 702992.1795
-0.00653798 -0.0223109 -1 702790.3786
0.02274326667 0.005407036667 -1 702268.3214
0.02160833333 0.006365513333 -1 702368.451
-0.02132096667 0.007653426667 -1 702496.9126
-0.02225303333 0.006048843333 -1 702350.7171
-0.0228329 -0.00522625 -1 702474.5846
0.0222217 -0.005900066667 -1 702534.3028
0.02340346667 -0.002533313333 -1 702458.7196
0.02289816667 -0.00527143 -1 702497.3664
0.02308203333 -0.004421353333 -1 702483.8019
0.002432583333 -0.02320233333 -1 703066.1205
0.004961756667 -0.02245153333 -1 703006.3083
0.00479776 -0.0231832 -1 703017.1813
0.008577656667 0.02196236667 -1 702142.6739
0.00700894 0.02178773333 -1 702173.8803
-0.01406863333 0.01867456667 -1 702251.2119
-0.0129353 0.01707743333 -1 702335.0564
0.004265856667 -0.0232942 -1 702969.8724
0.003902943333 -0.02197026667 -1 702878.8546
-0.01002782667 -0.02038196667 -1 702959.7915
-0.017921 0.01487853333 -1 702207.1551
-0.0174762 0.01224473333 -1 702350.5295
0.003964803114 -0.02639011143 -1 702993.5544
-0.004069797398 -0.02631451343 -1 702797.4408
-0.005587385332 -0.02603773466 -1 702817.6187
0.02345098314 -0.01260386162 -1 702518.4771
0.02515243023 -0.008677880586 -1 702529.8401
-0.02527551201 0.008482418524 -1 702310.8584
-0.0262196907 -0.00473641603 -1 702336.4892
-0.02644748794 -0.00319070719 -1 702245.4349
-0.02595199449 -0.006095163473 -1 702419.8267
-0.02635620825 0.003611698982 -1 702392.1954
-0.0260436287 0.005564332273 -1 702278.2169
0.009800471483 0.02484759365 -1 702057.2217
0.008871268646 0.02509499433 -1 702057.0444
0.02638125415 0.003716231986 -1 702432.2316
0.02659630511 0.001463067807 -1 702389.4806
0.02616526182 -0.004736809547 -1 702498.8175
0.02641283363 -0.003320164571 -1 702471.465
0.02597343644 -0.006198002457 -1 702518.2
-0.02026868169 0.01727993241 -1 702119.1904
-0.01933532307 0.01834182102 -1 702172.5662
-0.01830375418 0.01936733349 -1 702167.8582
-0.01724079762 0.02035917358 -1 702093.5693
-0.01740141346 -0.02021762268 -1 702546.7536
-0.01840447888 -0.0193042407 -1 702577.5297
-0.01930090847 -0.01838506068 -1 702566.8322
-0.02021488479 -0.01735760906 -1 702500.0457
0.01928839035 -0.01839715604 -1 702782.2345
0.018328002 -0.01935309696 -1 702795.5573
0.01572213978 -0.02153147549 -1 702855.5592
0.01714160576 -0.02037408147 -1 702804.018
0.02021138367 -0.01734073951 -1 702688.0306
0.02131756796 -0.01590485606 -1 702784.316
0.02247819507 -0.01432112142 -1 702646.1204
-0.02141596234 -0.01576115213 -1 702598.5532
-0.01596333157 -0.02132117676 -1 702714.2493
-0.02267587214 -0.0140474666 -1 702467.6306
-0.02137500036 0.01581968089 -1 702263.8452
-0.02261103392 0.01415753548 -1 702158.6549
-0.01570893067 0.02142628128 -1 702206.2079
-0.01401012174 0.0226993843 -1 702132.9295
0.02022738907 0.01735949223 -1 702116.9565
0.02134907127 0.01587728372 -1 702244.5973
0.02259163897 0.01410799648 -1 702223.5177
0.0160090021 0.0212168635 -1 702198.4367
0.01741830906 0.02016917809 -1 702078.2264
0.01435078748 0.02243196803 -1 702126.1401
0.0249197318 0.009352550402 -1 702100.3356
0.02553798605 -0.007558888075 -1 702505.5128
0.02657832144 -0.001795668059 -1 702304.1817
0.02666568295 -0.0003284361344 -1 702301.1352
0.02547608833 0.007744744329 -1 702163.7274
0.02595156667 0.005954227552 -1 702255.1489
0.01845812701 0.01925414667 -1 702146.4307
0.01934984107 0.01835674726 -1 702150.8052
0.007200406802 0.02561054072 -1 702062.1751
0.005047099085 0.02609764807 -1 702042.3297
0.002993496111 0.02644232312 -1 702079.1102
0.02348652567 0.01259983277 -1 702103.3883
-0.002595189228 0.02656125316 -1 702040.5825
-0.004084133173 0.02630373031 -1 702068.459
-0.005682664736 0.02605324143 -1 702066.8386
-0.0085748103 0.02525063857 -1 702115.2935
-0.007237934939 0.0256140429 -1 702086.8156
-0.02569451464 0.006958246063 -1 702273.7398
-0.02514777966 -0.008802397821 -1 702420.3832
-0.02556401082 -0.007495630997 -1 702373.3071
-0.007114195257 -0.02566663695 -1 702812.5175
-0.008819456772 -0.02508938363 -1 702847.688
-0.0009947787293 -0.02665323261 -1 702860.8862
0.0009708377723 -0.02664953435 -1 702858.173
0.00579409444 -0.02608334672 -1 703037.0916
0.007146929583 -0.02563999647 -1 703004.3128
0.008853051948 -0.02511286213 -1 702986.3505
0.01408650223 -0.0225783804 -1 702887.0455
0.01257100227 -0.02350854145 -1 702792.1711
-0.01434808751 -0.02243833259 -1 702605.2378
-0.01290354951 -0.02327858019 -1 702569.9915
0.004853615537 -0.02617376116 -1 702986.2372
-0.002580675005 -0.02649789847 -1 702822.4981
-0.02348365743 -0.01264383535 -1 702408.7963
-0.02353354405 0.01243272486 -1 702091.6545
-0.01243733264 0.02356992896 -1 702051.9268
0.01271129809 0.02341524062 -1 701979.2029
0.0009208217003 0.02668736542 -1 702002.5222
-0.0009322715882 0.02665822304 -1 701969.8384
-0.02664409789 0.001241258519 -1 702281.9377
-0.02661325714 -0.001074743236 -1 702258.6967
0.01101342104 0.0241650689 -1 702031.1
0.02426432093 0.0110998252 -1 702104.5475
-0.009842084536 0.02470935085 -1 702141.4797
-0.01110074914 0.02421489192 -1 702079.3139
-0.02438041523 0.01082068409 -1 702251.8378
-0.02461028342 -0.0100872063 -1 702465.8946
-0.02412717026 -0.01139105297 -1 702428.7959
0.02428681803 -0.01091006081 -1 702574.9936
0.02480955551 -0.009716136429 -1 702575.3465
0.01131429131 -0.02414312429 -1 702853.1685
0.01023261164 -0.02460163277 -1 702933.1802
-0.01037306692 -0.02457419942 -1 702740.7022
-0.01157551459 -0.02402133207 -1 702665.3347
-0.02470498609 0.009634382738 -1 702286.6189
0.002758032806 -0.02651083612 -1 702980.032
0.004760318503 -0.03097056805 -1 703106.9212
-0.004987896161 -0.03095082934 -1 702851.3244
-0.006755276255 -0.030596909 -1 702873.6988
0.02764425078 -0.01473791691 -1 702550.616
0.02962337553 -0.01017978921 -1 702554.6462
-0.02966328035 0.01009144727 -1 702283.5593
-0.03084653108 -0.005617333344 -1 702301.0052
-0.03110847546 -0.003783365558 -1 702201.4005
-0.03050149227 -0.007257262754 -1 702383.7452
-0.03100175463 0.004321504531 -1 702326.1193
-0.03066047329 0.006578143507 -1 702241.9856
0.01172750264 0.02908896105 -1 702081.1195
0.01061985347 0.02948050214 -1 702074.9109
0.03104867448 0.004350981198 -1 702442.4621
0.03129423264 0.001694180248 -1 702389.6178
0.03086048905 -0.005448402925 -1 702516.9579
0.03110552183 -0.003838973017 -1 702491.9193
0.03051628165 -0.00719039764 -1 702551.4706
-0.0238699175 0.02033469333 -1 702105.5239
-0.02272774159 0.02159166501 -1 702152.6114
-0.02150362325 0.02280163094 -1 702148.3471
-0.02018058419 0.02398421719 -1 702091.3036
-0.02043176934 -0.02377263905 -1 702538.9
-0.02166942708 -0.02266135245 -1 702587.9569
-0.02276548765 -0.02156221511 -1 702573.3256
-0.02384815037 -0.02032700511 -1 702477.2025
0.02268644716 -0.02162754441 -1 702847.4906
0.02154575395 -0.02276821358 -1 702863.9008
0.0183798341 -0.0253449385 -1 702901.098
0.02013310182 -0.02401484486 -1 702870.6971
0.02382551902 -0.02038792184 -1 702749.697
0.02515157995 -0.01869928901 -1 702820.21
0.02642113128 -0.01679082355 -1 702681.8871
-0.02524426509 -0.01851648872 -1 702571.4395
-0.01871176739 -0.02513030871 -1 702700.5893
-0.02664795704 -0.01650248275 -1 702459.3396
-0.02511759736 0.01867334913 -1 702220.432
-0.02648875422 0.01671558285 -1 702147.4099
-0.01845391244 0.02529330974 -1 702163.2369
-0.01646438297 0.02664163988 -1 702117.6984
0.02387315777 0.0203366343 -1 702118.2364
0.0251955093 0.01858159568 -1 702221.0055
0.02660732848 0.01654208011 -1 702203.7289
0.01882188866 0.02507281415 -1 702160.7449
0.02039116202 0.02377403513 -1 702069.5182
0.01684411157 0.02636626155 -1 702103.3712
0.02938312794 0.01088263486 -1 702093.0055
0.03004419333 -0.008898078392 -1 702525.4859
0.03125175896 -0.00208312431 -1 702297.6981
0.03132509101 -0.0003879252352 -1 702306.2736
0.02999684262 0.009010697931 -1 702164.5442
0.03053308778 0.006970881809 -1 702261.789
0.02164559964 0.02269076865 -1 702137.4146
0.02276195903 0.02157988897 -1 702141.6938
0.008590347538 0.03007800077 -1 702041.1697
0.006055093768 0.03072254113 -1 702019.5134
0.0036578921 0.03111656775 -1 702028.7958
0.02765730999 0.01478210096 -1 702091.5532
-0.00321703715 0.03113021318 -1 702011.2253
-0.004932629202 0.03092755772 -1 702032.3599
-0.006849073427 0.0306018551 -1 702054.0349
-0.01033422231 0.02961692762 -1 702088.8418
-0.008743731126 0.03008244266 -1 702052.7197
-0.03023482079 0.008254387026 -1 702234.9943
-0.02954329043 -0.01043673691 -1 702381.2883
-0.03002566575 -0.008921946112 -1 702346.2565
-0.00856652249 -0.0301545327 -1 702863.6038
-0.01046804252 -0.02949284533 -1 702872.0412
-0.00131442531 -0.03132136502 -1 702956.5888
0.001128845425 -0.03133043399 -1 702955.975
0.006884132163 -0.03058943808 -1 703140.1662
0.008546285284 -0.03013716348 -1 703100.5835
0.01046984594 -0.02950075932 -1 703080.5413
0.01652816068 -0.02660204 -1 702935.0685
0.01480154995 -0.02764118199 -1 702866.6181
-0.01678415533 -0.02645095388 -1 702616.7574
-0.0151039799 -0.02746229516 -1 702571.4827
0.005782714894 -0.0307837008 -1 703086.9569
-0.003232896173 -0.03117401701 -1 702890.3917
-0.02764000221 -0.01483381945 -1 702376.652
-0.02760707253 0.01470452187 -1 702071.5598
-0.01466779282 0.02771247669 -1 702019.0112
0.0149630068 0.027485124 -1 701952.3852
0.00107926563 0.03133823292 -1 701983.9009
-0.001250689762 0.03132310429 -1 701934.7959
-0.03129418215 0.001491839678 -1 702248.2319
-0.03128519004 -0.001312000934 -1 702197.412
0.01314207488 0.02841629388 -1 702037.8531
0.0285209212 0.01294399806 -1 702106.0985
-0.01179296731 0.02901283581 -1 702100.7055
-0.01315419601 0.0284760293 -1 702048.4379
-0.02862585333 0.01279284598 -1 702226.5025
-0.02900052467 -0.01189518411 -1 702429.1513
-0.02839021512 -0.01333902307 -1 702397.6584
0.02863402436 -0.0126848679 -1 702608.161
0.02919103497 -0.01131083461 -1 702606.9019
0.0133446171 -0.02839912481 -1 702928.3653
0.01207543835 -0.02899050914 -1 703034.5442
-0.01213076242 -0.02889832504 -1 702764.5541
-0.0135314094 -0.02828423933 -1 702677.6437
-0.0291505992 0.01145599712 -1 702248.3174
0.003328299931 -0.03117780851 -1 703098.2706
0.005446080987 -0.03484744009 -1 703183.698
-0.005775044779 -0.03477021661 -1 702872.1334
-0.007762766108 -0.03440668363 -1 702913.8545
0.03111835057 -0.01647640954 -1 702583.8541
0.03340074044 -0.01139516858 -1 702576.3429
-0.03332675397 0.01147008977 -1 702267.3405
-0.03471177795 -0.006253631417 -1 702263.5095
-0.03501186732 -0.004161852763 -1 702150.6715
-0.03430875684 -0.008155689242 -1 702350.0684
-0.0348999177 0.004865029099 -1 702277.0533
-0.03448686638 0.007398171595 -1 702217.168
0.01324962507 0.0326598642 -1 702104.6348
0.01202562297 0.03314042455 -1 702097.6378
0.0349253126 0.00484911449 -1 702451.2348
0.03520342522 0.001877753837 -1 702393.2716
0.03474411875 -0.006086822938 -1 702525.8603
0.03499311586 -0.004278604842 -1 702501.5869
0.03430279765 -0.007993704171 -1 702563.6962
-0.02687397618 0.02283630734 -1 702084.7354
-0.02556593355 0.02427889709 -1 702129.3011
-0.02421469945 0.02563076384 -1 702124.8992
-0.02270528608 0.02696173587 -1 702080.7484
-0.02295848295 -0.02676350374 -1 702514.157
-0.02436884847 -0.02549326541 -1 702556.325
-0.02560887028 -0.02424758146 -1 702539.2541
-0.02688620487 -0.02283771562 -1 702451.4061
0.02551444865 -0.02434349491 -1 702894.6912
0.02423752885 -0.02561977926 -1 702911.8009
0.0206575236 -0.02858171385 -1 702932.7792
0.02262108904 -0.02700918126 -1 702905.4622
0.02674940008 -0.02293417046 -1 702779.7156
0.02829311088 -0.02103349248 -1 702853.79
0.02979189617 -0.01886510748 -1 702711.7519
-0.02846784258 -0.02077666893 -1 702524.4331
-0.02099943386 -0.02830865364 -1 702669.9275
-0.03000250386 -0.01852137528 -1 702421.8071
-0.02833259584 0.02098257028 -1 702184.9517
-0.02979086994 0.01879697082 -1 702128.8988
-0.0207521154 0.02850060345 -1 702128.1361
-0.01853029861 0.02999113022 -1 702090.8687
0.02686064666 0.02281809962 -1 702114.423
0.02841708093 0.02087212065 -1 702208.7091
0.02999187951 0.01855080344 -1 702192.2413
0.021090449 0.02826052229 -1 702161.6974
0.02291766705 0.02679032685 -1 702064.0684
0.01887022414 0.02975264682 -1 702092.0664
0.03309298325 0.0121050817 -1 702096.5092
0.03384625203 -0.009903759303 -1 702537.8541
0.03519192358 -0.002322944025 -1 702304.2426
0.03527541025 -0.000423416702 -1 702310.4982
0.03376546199 0.01007142604 -1 702174.7981
0.03438390167 0.007836407691 -1 702277.7046
0.02430858141 0.02555588604 -1 702138.7127
0.0256007494 0.02427103192 -1 702146.0888
0.009714138892 0.03383283832 -1 702023.2547
0.006827754167 0.03456293564 -1 702003.6693
0.004135250145 0.03497898441 -1 701994.3403
0.03114933424 0.01654558948 -1 702094.829
-0.003685928263 0.03504953304 -1 701982.8615
-0.005535806142 0.03483707342 -1 702012.8801
-0.007755677241 0.03440117341 -1 702050.0472
-0.01172692283 0.03324642363 -1 702071.435
-0.009957392949 0.03382130484 -1 702032.1844
-0.03398535802 0.009365080599 -1 702207.2927
-0.033247529 -0.0117745048 -1 702342.1326
-0.03379530524 -0.01007072945 -1 702310.0769
-0.009822339061 -0.0338596633 -1 702900.3593
-0.0119019369 -0.03317800508 -1 702875.5283
-0.001573487188 -0.03522900661 -1 703019.7473
0.00126775221 -0.03523864139 -1 703020.0366
0.007776676044 -0.03439568375 -1 703206.58
0.009669172761 -0.03389755094 -1 703171.9736
0.01180017222 -0.0332286646 -1 703141.2645
0.01856053586 -0.02998054543 -1 702965.3752
0.01665184017 -0.03109778898 -1 702908.6571
-0.01882341544 -0.02979921446 -1 702605.6569
-0.01693055357 -0.0309158664 -1 702563.1624
0.006560826347 -0.03467064158 -1 703155.0963