# p  FACE_DATA 1436
# x  y  z  p
-0.01592896667 -0.01653226667 -1 1606.395923
0.01657313333 0.0160208 -1 1603.628437
-0.01359063333 0.0128176 -1 1611.676152
-0.01482033333 0.01432873333 -1 1604.08181
0.01211303667 0.01419776667 -1 1606.669674
0.01388393333 0.0126157 -1 1616.34555
0.001551908 0.00029166 -1 1634.897527
-0.0007156886667 -0.00105012 -1 1608.479048
-0.008560706667 -0.0216334 -1 1615.210969
0.003726083333 -0.02337806667 -1 1603.548632
-0.001686294667 -0.02345993333 -1 1606.470699
-0.02261056667 -0.006060163333 -1 1608.128577
-0.02299816667 -0.004418926667 -1 1605.733896
-0.02246676667 0.005203306667 -1 1603.011343
-0.02320146667 0.00279448 -1 1616.540589
-0.00498936 0.0229274 -1 1607.848137
-0.003743463333 0.02230256667 -1 1610.68854
0.004729936667 0.02282936667 -1 1604.693668
-0.0003052272667 0.02244516667 -1 1606.662044
0.0008993827333 0.0232875 -1 1605.291985
0.0033239 0.02235963333 -1 1602.110782
0.00805101 0.02213043333 -1 1605.709935
-0.003047013333 0.02294196667 -1 1610.623146
0.02315596667 0.001468849 -1 1610.880793
-0.006040296667 -0.01846966667 -1 1620.397489
-0.008658103333 -0.02018026667 -1 1616.172062
-0.01128343 -0.01875673333 -1 1617.108151
-0.01064229667 -0.0168819 -1 1594.637464
-0.008939163333 -0.016511 -1 1613.830013
-0.002640472 -0.0196662 -1 1609.158301
-0.001521776667 -0.02118863333 -1 1600.861077
-0.0007416493667 -0.0235195 -1 1612.624705
-0.002363281333 -0.02268506667 -1 1607.323253
-0.005385393333 -0.02187766667 -1 1609.998549
-0.01372963333 -0.01867993333 -1 1608.576695
-0.01551826667 -0.01773573333 -1 1606.606686
-0.01233753333 -0.01583263333 -1 1616.854459
-0.01393723333 -0.01649033333 -1 1608.482469
-0.0165166 -0.016559 -1 1607.856226
-0.01530713333 -0.01555403333 -1 1609.630835
-0.01255346667 -0.01380173333 -1 1638.342923
-0.01466716667 -0.0130684 -1 1605.925983
-0.01582113333 -0.014163 -1 1602.74672
-0.006241333333 -0.01460193333 -1 1633.824375
-0.008293616667 -0.01477683333 -1 1628.106838
-0.01107326 -0.01256973333 -1 1605.430485
-0.008040483333 -0.01088154 -1 1597.921864
-0.009153743333 -0.01293456667 -1 1618.394549
-0.01489666667 -0.01103637333 -1 1604.178301
-0.01666883333 -0.01048500667 -1 1611.933789
-0.009315633333 -0.00919478 -1 1610.882677
-0.01128879333 -0.01015660667 -1 1602.523796
-0.0129985 -0.00935658 -1 1625.136655
-0.01331833333 -0.007017463333 -1 1636.285089
-0.01715733333 -0.008150286667 -1 1609.936738
-0.015705 -0.006362536667 -1 1614.397712
-0.02332943333 0.001398023333 -1 1613.16058
-0.02321333333 -0.002317283333 -1 1606.403454
-0.0233015 -0.001052146667 -1 1611.520837
-0.022495 -0.00328184 -1 1607.536678
-0.02207146667 0.003993153333 -1 1601.029453
-0.02270326667 0.00026796 -1 1617.341513
-0.02108106667 -0.00289455 -1 1603.805852
-0.01981813333 -0.00435292 -1 1625.284782
0.01496203333 -0.002770838667 -1 1652.634182
0.01880986667 -0.00754393 -1 1637.618639
0.01756106667 -0.006321716667 -1 1646.297449
0.01862416667 -0.009368483333 -1 1617.730977
0.02011306667 -0.01006252333 -1 1611.948027
0.0168075 -0.01083792667 -1 1619.716769
0.0203416 -0.01137893333 -1 1624.385677
0.02301863333 0.002832003333 -1 1629.094495
0.02222336667 0.003871473333 -1 1623.767533
0.01717916667 -0.002487185333 -1 1618.832982
0.01834126667 -0.004197446667 -1 1599.553639
0.01978043333 0.0002927566667 -1 1614.458292
0.01789906667 -0.000560062 -1 1629.723528
0.02349526667 -0.001601916 -1 1604.930009
0.02120653333 -0.0006361033333 -1 1602.706507
0.02273233333 0.0001634756667 -1 1609.372262
0.0235328 -0.0007296303333 -1 1607.597996
0.022801 -0.003308676667 -1 1606.150626
0.020302 -0.004192863333 -1 1627.143288
0.02137396667 -0.00275453 -1 1604.434237
0.01875806667 -0.01301643333 -1 1602.55924
0.01698396667 -0.01274003333 -1 1619.910852
0.01668933333 -0.01551156667 -1 1605.044033
0.01561256667 -0.01435653333 -1 1602.466448
0.01645603333 -0.01647973333 -1 1604.909046
0.01379646667 -0.01512173333 -1 1605.18903
0.01095759333 -0.01844986667 -1 1602.57895
0.0123613 -0.01864116667 -1 1607.134216
0.0134755 -0.0183751 -1 1607.364808
0.0152862 -0.006901776667 -1 1605.814456
0.01384926667 -0.00506116 -1 1624.352366
0.01471833333 -0.009593433333 -1 1605.303975
0.0123352 -0.01378586667 -1 1610.193887
0.01028757 -0.00951642 -1 1632.86279
0.01247926667 -0.01086707333 -1 1624.860799
0.00986414 -0.01715226667 -1 1613.076336
0.01022911333 -0.0148173 -1 1627.650424
0.00821159 -0.01105531333 -1 1604.557819
0.0082972 -0.0134374 -1 1606.721723
0.006265606667 -0.01450466667 -1 1623.011075
0.004687583333 -0.01335726667 -1 1601.846044
0.00624855 -0.01661663333 -1 1614.573741
0.00791517 -0.01788433333 -1 1604.938515
0.00457589 -0.0176349 -1 1606.662588
0.001719268 -0.02001463333 -1 1606.915777
0.0004626566667 -0.02127856667 -1 1619.679335
0.001390178633 -0.0232679 -1 1600.129949
0.003199173333 -0.0227858 -1 1609.993158
0.0005657973 -0.02283456667 -1 1603.221978
0.00487693 -0.01960023333 -1 1591.593915
0.003568583333 -0.02068953333 -1 1620.303141
-0.001880585333 -0.0177058 -1 1600.261946
-0.003172333333 -0.0160694 -1 1612.500893
-0.002349483333 -0.01419343333 -1 1600.085648
-0.0005302333333 -0.01400073333 -1 1617.863577
0.002967696667 -0.0138721 -1 1611.921219
0.00291957 -0.0169554 -1 1605.212914
0.0004186466667 -0.01538533333 -1 1602.448921
0.001371294667 -0.01824583333 -1 1604.211053
-0.0001088553333 -0.01721443333 -1 1605.025412
0.002269483333 -0.0152879 -1 1602.553915
-0.00161266 0.01355823333 -1 1606.018709
0.02069983333 0.00378931 -1 1606.117532
0.01964536667 0.002373326667 -1 1608.16692
0.01145931 -0.00502932 -1 1601.447852
0.009841946667 -0.006939323333 -1 1620.415769
0.01389926667 -0.0009581926667 -1 1618.931381
0.014952 0.0009265173333 -1 1600.988779
0.01673466667 0.001040994667 -1 1606.620289
0.0004044566667 -0.005242376667 -1 1603.013355
-0.001054623333 -0.003604986667 -1 1618.761181
0.004662493333 -0.01135441667 -1 1598.96724
0.006154906667 -0.01011973 -1 1627.850038
0.00226098 -0.009115306667 -1 1603.075513
0.002929886667 -0.01081881667 -1 1616.29589
0.00028711 -0.0123142 -1 1609.034304
0.001934203333 -0.012283 -1 1624.50116
0.01187578667 -0.0009089336667 -1 1598.063385
0.01054859667 -0.002689739667 -1 1620.788417
0.01116812 0.0008222796667 -1 1618.042948
0.00940542 0.001211087 -1 1602.584544
0.009375046667 0.003102186667 -1 1610.597888
0.00790402 -9.6143e-05 -1 1606.784693
0.0059032 0.0006913966667 -1 1618.352273
0.003851203333 -0.00087836 -1 1648.060496
0.00833953 -0.002265756333 -1 1606.259765
-0.005257603333 -0.01267916667 -1 1602.429286
-0.006196626667 -0.01080104 -1 1603.336757
-0.003348056667 -0.01257096667 -1 1613.103274
-0.005110013333 -0.009207193333 -1 1598.653029
0.0003536266667 -0.00900402 -1 1605.33812
-0.00062645 -0.00737246 -1 1606.352293
-0.002440476667 -0.01080279667 -1 1600.554329
-0.00242757 -0.007621523333 -1 1596.06533
-0.00326341 -0.00931715 -1 1609.633756
-0.00062456 -0.01073873 -1 1618.383922
-0.004851666667 -0.001367041667 -1 1605.921125
-0.002887855333 0.000132795 -1 1630.914326
-0.003153502 0.002211918333 -1 1613.931605
-0.01172206667 -0.005270406667 -1 1597.692924
-0.008717683333 -0.00735423 -1 1603.925849
-0.009745343333 -0.005586706667 -1 1616.977742
-0.00827595 -0.00389521 -1 1618.685178
-0.005136056667 0.00488452 -1 1597.359629
-0.005198543333 0.002852951667 -1 1605.831347
-0.008501503333 -0.00193893 -1 1603.886454
-0.0067685 -0.0005034116667 -1 1613.099666
-0.00684973 0.001637458333 -1 1643.822002
-0.0201527 -0.0008378133333 -1 1614.457586
-0.02103766667 0.0006452366667 -1 1638.306695
-0.01879823333 0.004025293333 -1 1602.10804
-0.02053383333 0.002973973333 -1 1599.056694
-0.01694366667 0.002885116667 -1 1628.328103
-0.01045813 -0.001265709333 -1 1601.308266
-0.0122093 -0.002905689333 -1 1608.011825
-0.01801696667 -0.003282936667 -1 1604.756263
-0.01460493333 -1.568266667e-05 -1 1634.364124
-0.0182706 -0.0009383466667 -1 1607.258014
-0.016758 0.0006191166667 -1 1624.406345
-0.01617736667 -0.00401014 -1 1620.310181
-0.01427793333 -0.002300349333 -1 1606.204177
0.00531689 0.0195265 -1 1602.768924
0.0016994 0.0133476 -1 1602.249439
1.231333333e-05 0.0144302 -1 1613.059419
0.00759376 0.0165977 -1 1618.192393
0.00359044 0.0143401 -1 1639.545753
0.003608116667 0.01645466667 -1 1616.71496
0.005423266667 0.01752133333 -1 1605.710536
0.009174916667 0.0175885 -1 1624.731638
0.006951133333 0.0204055 -1 1616.252308
0.006017013333 0.02250693333 -1 1604.777613
0.009375453333 0.02161723333 -1 1605.608112
0.009813053333 0.02033233333 -1 1607.22324
-0.004147476667 0.02093773333 -1 1607.207337
0.0033031 0.02063323333 -1 1606.045737
0.002109943333 0.02319 -1 1606.036673
-0.001216793933 0.02311783333 -1 1606.516284
-0.002165013333 0.02304723333 -1 1614.34505
-0.0003137876667 0.02059146667 -1 1608.069666
1.406566667e-05 0.0164327 -1 1625.205916
0.001718829 0.01746466667 -1 1602.250891
0.001520189 0.01963806667 -1 1606.032275
-0.001710537667 0.01930336667 -1 1604.516622
-0.003473516667 0.0196642 -1 1609.137594
-0.001581324333 0.017318 -1 1600.13689
0.0186613 0.01409076667 -1 1610.260019
0.01797213333 0.0149675 -1 1604.001235
0.014122 0.01726563333 -1 1603.894901
0.01237703667 0.01633843333 -1 1607.84304
0.01265513333 0.01953446667 -1 1624.385594
0.01675866667 0.01492393333 -1 1604.048872
0.0159405 0.0132312 -1 1604.962881
0.01605803333 0.0165406 -1 1604.586222
0.0115347 0.0190973 -1 1612.878325
0.01545686667 0.01708663333 -1 1603.60807
0.01083443667 0.0174526 -1 1612.844593
0.01369983333 0.01881696667 -1 1624.851794
0.01113561333 0.003860196667 -1 1602.561008
0.01221476667 0.002462292667 -1 1600.568808
0.01397516667 0.002615789333 -1 1607.629577
0.0177626 0.002704026667 -1 1603.193026
0.005435856667 0.01322363333 -1 1605.784871
0.007624026667 0.01441456667 -1 1622.573256
0.00957865 0.01319953333 -1 1636.188775
0.00519824 0.01100212 -1 1604.612379
0.009131983333 0.01076049 -1 1621.855984
0.006939743333 0.00975401 -1 1627.099503
0.01082733667 0.00937291 -1 1610.644049
0.0130449 0.01022988667 -1 1650.834969
0.01027651667 0.007121816667 -1 1629.019622
0.01172448 0.00572748 -1 1599.997222
0.001484606667 0.01125236667 -1 1597.549826
0.00313803 0.01002335333 -1 1629.225073
-0.00185089 0.01164496667 -1 1611.694363
-0.00044071 0.0104217 -1 1607.51222
-0.001948985333 0.003991143333 -1 1603.579353
-0.00084906 0.00833136 -1 1601.91944
-0.003285566667 0.00567432 -1 1607.107054
-0.00281964 0.00760123 -1 1602.433488
0.00070818 0.00692316 -1 1639.031257
7.418133333e-05 0.004509853333 -1 1636.16228
0.001806928 0.003023006667 -1 1629.148107
0.002769953333 0.007784486667 -1 1604.041334
0.0139393 0.00633644 -1 1622.407955
0.01511083333 0.004622653333 -1 1596.038847
0.0147089 0.008587753333 -1 1597.433486
0.0171156 0.004596413333 -1 1619.866242
0.020235 0.005640163333 -1 1612.73718
0.01853353333 0.006116566667 -1 1647.986422
0.0169735 0.0094678 -1 1607.374283
0.01859726667 0.008230886667 -1 1606.034348
0.0188734 0.01254143333 -1 1610.991158
0.02166263333 0.00810798 -1 1616.636033
0.02049576667 0.01107403333 -1 1612.443216
0.02049373333 0.00904946 -1 1613.651283
0.01736606667 0.01172543333 -1 1610.79625
0.02200646667 0.00712847 -1 1608.277828
-0.004384243333 0.009150303333 -1 1639.649567
-0.003823843333 0.0111037 -1 1611.90349
-0.003324166667 0.01635176667 -1 1634.435662
-0.00668175 0.01794023333 -1 1608.927698
-0.004580703333 0.01771476667 -1 1605.919421
-0.00335375 0.0145945 -1 1607.486867
-0.004822013333 0.0130529 -1 1615.224382
-0.006840893333 0.0133211 -1 1626.327809
-0.01038063 0.01588596667 -1 1621.009621
-0.01135782333 0.01335393333 -1 1625.668864
-0.007929383333 0.0159605 -1 1625.340832
-0.01141897333 0.01752526667 -1 1609.750935
-0.0162952 0.01683946667 -1 1607.966847
-0.01525533333 0.01697493333 -1 1611.940749
-0.01246923333 0.019786 -1 1613.222411
-0.01072749667 0.001121180667 -1 1590.219376
-0.0088521 0.00258883 -1 1627.860239
-0.01280566667 0.001765867333 -1 1614.681904
-0.0152265 0.00424537 -1 1604.603621
-0.01324156667 0.00376092 -1 1607.526061
-0.008201263333 0.0114885 -1 1609.885574
-0.01026694667 0.01159586667 -1 1609.523037
-0.006639943333 0.00595886 -1 1639.283762
-0.0087048 0.004878663333 -1 1602.013483
-0.007905136667 0.009339396667 -1 1621.600921
-0.006354056667 0.008297733333 -1 1625.880483
-0.01211686667 0.005560986667 -1 1616.077946
-0.01107159 0.009601683333 -1 1625.624922
-0.009745686667 0.00827008 -1 1604.24176
-0.01025946333 0.00614822 -1 1645.442799
-0.01337553333 0.00709002 -1 1616.37408
-0.01284403333 0.009008856667 -1 1620.594787
-0.0142722 0.01046670667 -1 1607.275836
-0.0151622 0.00626686 -1 1606.230302
-0.01643266667 0.009325663333 -1 1609.765919
-0.01871003333 0.00616334 -1 1601.247055
-0.01679116667 0.007044653333 -1 1607.82139
-0.0179603 0.01030389 -1 1605.859646
-0.016343 0.0137329 -1 1608.357603
-0.01884316667 0.01269446667 -1 1606.530868
0.008638666667 0.01939113333 -1 1613.45666
0.01104956667 0.0201744 -1 1606.08922
0.02091826667 0.01019064 -1 1610.008117
0.0199548 0.01198576667 -1 1605.369534
-0.005921903333 0.02270116667 -1 1609.888697
-0.00731551 0.0198184 -1 1620.005518
-0.005888423333 0.02086646667 -1 1601.243813
-0.006416953333 0.02200506667 -1 1610.618581
-0.01114254 0.019377 -1 1604.652118
-0.009742493333 0.0208073 -1 1605.666886
-0.01056560667 0.02039946667 -1 1607.448844
-0.01415643333 0.01613176667 -1 1605.383556
-0.01691153333 0.01622546667 -1 1608.812112
-0.0131311 0.01862283333 -1 1607.407599
-0.00745474 0.02223253333 -1 1610.040676
-0.008647073333 0.02067636667 -1 1602.850608
-0.008257773333 0.0219519 -1 1608.854298
-0.02062966667 0.01020365667 -1 1607.926765
-0.0200076 0.01218186667 -1 1610.565112
-0.0200558 0.007462906667 -1 1607.795913
-0.02198623333 0.00693933 -1 1609.87265
-0.01966456667 0.009322446667 -1 1610.286177
-0.02188006667 0.008824603333 -1 1607.646182
-0.02056316667 0.01119113333 -1 1609.984025
-0.02158 0.009515293333 -1 1607.059531
-0.01425923333 -0.01773866667 -1 1605.696862
-0.01084256333 -0.0199438 -1 1612.935387
-0.004504563333 -0.02284223333 -1 1609.458207
-0.003580836667 -0.02301086667 -1 1606.568621
-0.007605313333 -0.02198253333 -1 1611.060562
-0.00777254 -0.01843606667 -1 1604.74041
-0.01920386667 -0.007800873333 -1 1621.410748
-0.020356 -0.006087533333 -1 1618.627939
-0.02189976667 -0.006600163333 -1 1609.739565
-0.01727063333 -0.0142765 -1 1613.102626
-0.01835243333 -0.0119934 -1 1604.413764
-0.02044916667 -0.00913407 -1 1611.203844
-0.01705166667 -0.01602383333 -1 1612.379965
-0.017595 -0.01541143333 -1 1611.197509
-0.01845103333 -0.013708 -1 1607.916667
-0.02183756667 -0.008597846667 -1 1609.754245
-0.0197076 -0.01174066667 -1 1605.602543
-0.0205738 -0.01017324333 -1 1609.570469
0.0202657 -0.007015363333 -1 1639.728717
0.02225806667 -0.00750208 -1 1618.01737
0.02097763333 -0.005788566667 -1 1596.349238
0.0224772 -0.006806 -1 1614.886326
0.02152273333 -0.008612823333 -1 1624.332878
0.0179744 -0.01514813333 -1 1604.729309
0.015886 -0.0170437 -1 1605.104784
0.01867173333 -0.0142695 -1 1603.462671
0.0197642 -0.01238133333 -1 1605.238598
0.02129063333 -0.007822943333 -1 1630.853931
0.0212074 -0.00933083 -1 1604.006142
0.00593675 -0.0225258 -1 1607.599066
0.00782603 -0.0221214 -1 1607.274064
0.00776417 -0.019654 -1 1606.035289
0.00639859 -0.02035163333 -1 1610.758182
0.0066552 -0.021777 -1 1608.242651
0.01046142667 -0.020145 -1 1607.068407
0.00887399 -0.02078086667 -1 1604.589374
0.00867924 -0.0218229 -1 1606.118495
0.01134866667 -0.0206751 -1 1603.949311
0.009857876667 -0.02092216667 -1 1605.078305
0.0151818 -0.01765643333 -1 1603.576249
0.01389803333 -0.0171847 -1 1608.848629
0.01228413333 -0.02011256667 -1 1605.673103
-0.02019516667 -0.01092203333 -1 1607.937296
-0.02213603333 -0.00777728 -1 1609.7658
-0.01497173333 0.01797233333 -1 1613.102396
-0.01862206667 0.01398463333 -1 1611.918993
-0.0170089 0.01507653333 -1 1607.077766
0.008200073333 0.00623519 -1 1606.064705
0.004120046667 0.004140873333 -1 1671.154013
0.00788747 0.004082843333 -1 1604.630915
0.006558653333 0.007479803333 -1 1638.314971
0.005917023333 0.002979283333 -1 1608.125829
0.004449073333 0.006489046667 -1 1613.72671
-0.006732176667 -0.006615256667 -1 1607.537174
-0.00327542 -0.00452604 -1 1625.725776
-0.006591576667 -0.00456366 -1 1645.94495
-0.005382936667 -0.00740906 -1 1600.501568
-0.004900296667 -0.00347101 -1 1610.275361
-0.00361746 -0.006412493333 -1 1606.99318
0.005701736667 -0.007911023333 -1 1603.969051
0.004233586667 -0.003335666667 -1 1635.870009
0.003540416667 -0.0074422 -1 1606.331178
0.007312796667 -0.00626951 -1 1628.996619
0.00266397 -0.00520083 -1 1605.24256
0.006721093333 -0.003935523333 -1 1632.39288
-0.0127676 -0.0193479 -1 1609.647739
-0.005154636667 -0.0163697 -1 1651.988825
-0.00481788 -0.02012976667 -1 1607.921751
-0.00653798 -0.0223109 -1 1608.80307
0.02274326667 0.005407036667 -1 1608.411962
0.02160833333 0.006365513333 -1 1609.931801
-0.02132096667 0.007653426667 -1 1602.662852
-0.02225303333 0.006048843333 -1 1604.532268
-0.0228329 -0.00522625 -1 1607.605388
0.0222217 -0.005900066667 -1 1604.698525
0.02340346667 -0.002533313333 -1 1603.999014
0.02289816667 -0.00527143 -1 1608.13745
0.02308203333 -0.004421353333 -1 1609.34921
0.002432583333 -0.02320233333 -1 1597.542925
0.004961756667 -0.02245153333 -1 1605.330766
0.00479776 -0.0231832 -1 1605.712149
0.008577656667 0.02196236667 -1 1604.88238
0.00700894 0.02178773333 -1 1603.998405
-0.01406863333 0.01867456667 -1 1608.867434
-0.0129353 0.01707743333 -1 1620.934906
0.004265856667 -0.0232942 -1 1603.862932
0.003902943333 -0.02197026667 -1 1600.449763
-0.01002782667 -0.02038196667 -1 1609.59542
-0.017921 0.01487853333 -1 1610.122363
-0.0174762 0.01224473333 -1 1608.357124
0.003964803114 -0.02639011143 -1 1600.837595
-0.004069797398 -0.02631451343 -1 1605.780506
-0.005587385332 -0.02603773466 -1 1602.971388
0.02345098314 -0.01260386162 -1 1600.743856
0.02515243023 -0.008677880586 -1 1601.514125
-0.02527551201 0.008482418524 -1 1605.143348
-0.0262196907 -0.00473641603 -1 1611.559414
-0.02644748794 -0.00319070719 -1 1609.705433
-0.02595199449 -0.006095163473 -1 1612.192885
-0.02635620825 0.003611698982 -1 1608.17478
-0.0260436287 0.005564332273 -1 1602.804827
0.009800471483 0.02484759365 -1 1604.305585
0.008871268646 0.02509499433 -1 1603.859923
0.02638125415 0.003716231986 -1 1602.650425
0.02659630511 0.001463067807 -1 1606.267941
0.02616526182 -0.004736809547 -1 1599.600039
0.02641283363 -0.003320164571 -1 1600.337023
0.02597343644 -0.006198002457 -1 1601.477089
-0.02026868169 0.01727993241 -1 1609.118153
-0.01933532307 0.01834182102 -1 1602.702256
-0.01830375418 0.01936733349 -1 1601.867065
-0.01724079762 0.02035917358 -1 1614.243221
-0.01740141346 -0.02021762268 -1 1604.881506
-0.01840447888 -0.0193042407 -1 1603.488426
-0.01930090847 -0.01838506068 -1 1602.921777
-0.02021488479 -0.01735760906 -1 1604.697515
0.01928839035 -0.01839715604 -1 1602.121756
0.018328002 -0.01935309696 -1 1602.336008
0.01572213978 -0.02153147549 -1 1606.312862
0.01714160576 -0.02037408147 -1 1605.216493
0.02021138367 -0.01734073951 -1 1604.062956
0.02131756796 -0.01590485606 -1 1608.00661
0.02247819507 -0.01432112142 -1 1601.319078
-0.02141596234 -0.01576115213 -1 1614.152744
-0.01596333157 -0.02132117676 -1 1610.768614
-0.02267587214 -0.0140474666 -1 1611.717516
-0.02137500036 0.01581968089 -1 1617.942222
-0.02261103392 0.01415753548 -1 1620.280196
-0.01570893067 0.02142628128 -1 1613.775565
-0.01401012174 0.0226993843 -1 1613.597394
0.02022738907 0.01735949223 -1 1607.51023
0.02134907127 0.01587728372 -1 1608.610123
0.02259163897 0.01410799648 -1 1606.334968
0.0160090021 0.0212168635 -1 1602.944926
0.01741830906 0.02016917809 -1 1601.020027
0.01435078748 0.02243196803 -1 1601.946771
0.0249197318 0.009352550402 -1 1611.146667
0.02553798605 -0.007558888075 -1 1600.875519
0.02657832144 -0.001795668059 -1 1602.124846
0.02666568295 -0.0003284361344 -1 1604.750053
0.02547608833 0.007744744329 -1 1611.767821
0.02595156667 0.005954227552 -1 1603.843184
0.01845812701 0.01925414667 -1 1600.868686
0.01934984107 0.01835674726 -1 1601.425833
0.007200406802 0.02561054072 -1 1613.327026
0.005047099085 0.02609764807 -1 1612.331999
0.002993496111 0.02644232312 -1 1608.141006
0.02348652567 0.01259983277 -1 1606.782501
-0.002595189228 0.02656125316 -1 1609.464443
-0.004084133173 0.02630373031 -1 1609.625422
-0.005682664736 0.02605324143 -1 1608.526185
-0.0085748103 0.02525063857 -1 1607.039692
-0.007237934939 0.0256140429 -1 1606.54202
-0.02569451464 0.006958246063 -1 1602.422581
-0.02514777966 -0.008802397821 -1 1608.691484
-0.02556401082 -0.007495630997 -1 1609.463374
-0.007114195257 -0.02566663695 -1 1602.892014
-0.008819456772 -0.02508938363 -1 1607.654805
-0.0009947787293 -0.02665323261 -1 1602.726554
0.0009708377723 -0.02664953435 -1 1600.802284
0.00579409444 -0.02608334672 -1 1604.001471
0.007146929583 -0.02563999647 -1 1603.998142
0.008853051948 -0.02511286213 -1 1605.706499
0.01408650223 -0.0225783804 -1 1606.597961
0.01257100227 -0.02350854145 -1 1602.114928
-0.01434808751 -0.02243833259 -1 1607.181894
-0.01290354951 -0.02327858019 -1 1604.7163
0.004853615537 -0.02617376116 -1 1603.532681
-0.002580675005 -0.02649789847 -1 1605.947129
-0.02348365743 -0.01264383535 -1 1612.17356
-0.02353354405 0.01243272486 -1 1597.931595
-0.01243733264 0.02356992896 -1 1609.649721
0.01271129809 0.02341524062 -1 1601.548549
0.0009208217003 0.02668736542 -1 1607.504689
-0.0009322715882 0.02665822304 -1 1607.311599
-0.02664409789 0.001241258519 -1 1609.349438
-0.02661325714 -0.001074743236 -1 1611.577245
0.01101342104 0.0241650689 -1 1602.669077
0.02426432093 0.0110998252 -1 1612.373454
-0.009842084536 0.02470935085 -1 1609.099032
-0.01110074914 0.02421489192 -1 1608.26527
-0.02438041523 0.01082068409 -1 1605.794965
-0.02461028342 -0.0100872063 -1 1611.278122
-0.02412717026 -0.01139105297 -1 1611.226588
0.02428681803 -0.01091006081 -1 1599.976913
0.02480955551 -0.009716136429 -1 1599.929566
0.01131429131 -0.02414312429 -1 1604.855928
0.01023261164 -0.02460163277 -1 1605.076941
-0.01037306692 -0.02457419942 -1 1605.336948
-0.01157551459 -0.02402133207 -1 1605.346314
-0.02470498609 0.009634382738 -1 1604.573046
0.002758032806 -0.02651083612 -1 1602.024506
0.004760318503 -0.03097056805 -1 1598.410353
-0.004987896161 -0.03095082934 -1 1605.866284
-0.006755276255 -0.030596909 -1 1603.429117
0.02764425078 -0.01473791691 -1 1603.398764
0.02962337553 -0.01017978921 -1 1603.991809
-0.02966328035 0.01009144727 -1 1606.421981
-0.03084653108 -0.005617333344 -1 1608.226913
-0.03110847546 -0.003783365558 -1 1607.734387
-0.03050149227 -0.007257262754 -1 1609.439161
-0.03100175463 0.004321504531 -1 1604.731223
-0.03066047329 0.006578143507 -1 1602.528746
0.01172750264 0.02908896105 -1 1600.749284
0.01061985347 0.02948050214 -1 1600.436306
0.03104867448 0.004350981198 -1 1607.105739
0.03129423264 0.001694180248 -1 1606.110378
0.03086048905 -0.005448402925 -1 1603.449166
0.03110552183 -0.003838973017 -1 1604.030851
0.03051628165 -0.00719039764 -1 1605.731664
-0.0238699175 0.02033469333 -1 1603.665037
-0.02272774159 0.02159166501 -1 1603.371237
-0.02150362325 0.02280163094 -1 1603.819135
-0.02018058419 0.02398421719 -1 1603.969865
-0.02043176934 -0.02377263905 -1 1598.098713
-0.02166942708 -0.02266135245 -1 1622.696548
-0.02276548765 -0.02156221511 -1 1612.383594
-0.02384815037 -0.02032700511 -1 1610.196321
0.02268644716 -0.02162754441 -1 1601.451494
0.02154575395 -0.02276821358 -1 1602.200615
0.0183798341 -0.0253449385 -1 1603.596138
0.02013310182 -0.02401484486 -1 1604.281148
0.02382551902 -0.02038792184 -1 1602.606186
0.02515157995 -0.01869928901 -1 1605.955033
0.02642113128 -0.01679082355 -1 1603.709753
-0.02524426509 -0.01851648872 -1 1610.534434
-0.01871176739 -0.02513030871 -1 1607.206005
-0.02664795704 -0.01650248275 -1 1613.627028
-0.02511759736 0.01867334913 -1 1605.391626
-0.02648875422 0.01671558285 -1 1604.473438
-0.01845391244 0.02529330974 -1 1605.044592
-0.01646438297 0.02664163988 -1 1607.588035
0.02387315777 0.0203366343 -1 1601.696472
0.0251955093 0.01858159568 -1 1603.528976
0.02660732848 0.01654208011 -1 1609.497421
0.01882188866 0.02507281415 -1 1603.232196
0.02039116202 0.02377403513 -1 1600.897869
0.01684411157 0.02636626155 -1 1604.169206
0.02938312794 0.01088263486 -1 1604.253332
0.03004419333 -0.008898078392 -1 1603.492752
0.03125175896 -0.00208312431 -1 1604.123053
0.03132509101 -0.0003879252352 -1 1603.6477
0.02999684262 0.009010697931 -1 1605.242177
0.03053308778 0.006970881809 -1 1605.523192
0.02164559964 0.02269076865 -1 1599.404795
0.02276195903 0.02157988897 -1 1599.776924
0.008590347538 0.03007800077 -1 1599.303698
0.006055093768 0.03072254113 -1 1599.708321
0.0036578921 0.03111656775 -1 1605.040852
0.02765730999 0.01478210096 -1 1603.972723
-0.00321703715 0.03113021318 -1 1606.696877
-0.004932629202 0.03092755772 -1 1606.408074
-0.006849073427 0.0306018551 -1 1609.524981
-0.01033422231 0.02961692762 -1 1608.340625
-0.008743731126 0.03008244266 -1 1607.995335
-0.03023482079 0.008254387026 -1 1602.857672
-0.02954329043 -0.01043673691 -1 1606.984333
-0.03002566575 -0.008921946112 -1 1606.505691
-0.00856652249 -0.0301545327 -1 1604.04245
-0.01046804252 -0.02949284533 -1 1608.904581
-0.00131442531 -0.03132136502 -1 1599.817612
0.001128845425 -0.03133043399 -1 1598.178561
0.006884132163 -0.03058943808 -1 1607.060445
0.008546285284 -0.03013716348 -1 1606.896141
0.01046984594 -0.02950075932 -1 1609.278036
0.01652816068 -0.02660204 -1 1605.422136
0.01480154995 -0.02764118199 -1 1603.351103
-0.01678415533 -0.02645095388 -1 1605.126886
-0.0151039799 -0.02746229516 -1 1604.065442
0.005782714894 -0.0307837008 -1 1603.608179
-0.003232896173 -0.03117401701 -1 1605.365686
-0.02764000221 -0.01483381945 -1 1603.098332
-0.02760707253 0.01470452187 -1 1604.055109
-0.01466779282 0.02771247669 -1 1604.368129
0.0149630068 0.027485124 -1 1602.007967
0.00107926563 0.03133823292 -1 1604.586906
-0.001250689762 0.03132310429 -1 1604.411677
-0.03129418215 0.001491839678 -1 1604.755364
-0.03128519004 -0.001312000934 -1 1607.156094
0.01314207488 0.02841629388 -1 1603.799761
0.0285209212 0.01294399806 -1 1609.277787
-0.01179296731 0.02901283581 -1 1606.936602
-0.01315419601 0.0284760293 -1 1605.890814
-0.02862585333 0.01279284598 -1 1605.097414
-0.02900052467 -0.01189518411 -1 1608.002093
-0.02839021512 -0.01333902307 -1 1607.347595
0.02863402436 -0.0126848679 -1 1602.842771
0.02919103497 -0.01131083461 -1 1603.414638
0.0133446171 -0.02839912481 -1 1604.382838
0.01207543835 -0.02899050914 -1 1606.306541
-0.01213076242 -0.02889832504 -1 1604.852466
-0.0135314094 -0.02828423933 -1 1605.534187
-0.0291505992 0.01145599712 -1 1603.724285
0.003328299931 -0.03117780851 -1 1599.196357
0.005446080987 -0.03484744009 -1 1596.972577
-0.005775044779 -0.03477021661 -1 1608.650684
-0.007762766108 -0.03440668363 -1 1603.939438
0.03111835057 -0.01647640954 -1 1603.171309
0.03340074044 -0.01139516858 -1 1604.441135
-0.03332675397 0.01147008977 -1 1602.270584
-0.03471177795 -0.006253631417 -1 1609.043124
-0.03501186732 -0.004161852763 -1 1607.38671
-0.03430875684 -0.008155689242 -1 1611.297098
-0.0348999177 0.004865029099 -1 1614.383683
-0.03448686638 0.007398171595 -1 1599.860997
0.01324962507 0.0326598642 -1 1599.713659
0.01202562297 0.03314042455 -1 1599.390874
0.0349253126 0.00484911449 -1 1602.555835
0.03520342522 0.001877753837 -1 1605.594833
0.03474411875 -0.006086822938 -1 1600.914953
0.03499311586 -0.004278604842 -1 1600.562903
0.03430279765 -0.007993704171 -1 1606.321925
-0.02687397618 0.02283630734 -1 1609.148236
-0.02556593355 0.02427889709 -1 1599.916175
-0.02421469945 0.02563076384 -1 1600.440778
-0.02270528608 0.02696173587 -1 1603.525123
-0.02295848295 -0.02676350374 -1 1604.683063
-0.02436884847 -0.02549326541 -1 1601.898948
-0.02560887028 -0.02424758146 -1 1601.99925
-0.02688620487 -0.02283771562 -1 1603.920843
0.02551444865 -0.02434349491 -1 1599.758391
0.02423752885 -0.02561977926 -1 1600.020868
0.0206575236 -0.02858171385 -1 1604.133327
0.02262108904 -0.02700918126 -1 1604.654549
0.02674940008 -0.02293417046 -1 1603.337905
0.02829311088 -0.02103349248 -1 1608.793535
0.02979189617 -0.01886510748 -1 1606.799815
-0.02846784258 -0.02077666893 -1 1604.361741
-0.02099943386 -0.02830865364 -1 1614.888025
-0.03000250386 -0.01852137528 -1 1607.83844
-0.02833259584 0.02098257028 -1 1610.959997
-0.02979086994 0.01879697082 -1 1609.83507
-0.0207521154 0.02850060345 -1 1604.362251
-0.01853029861 0.02999113022 -1 1608.62372
0.02686064666 0.02281809962 -1 1604.729267
0.02841708093 0.02087212065 -1 1605.292339
0.02999187951 0.01855080344 -1 1611.778597
0.021090449 0.02826052229 -1 1605.707948
0.02291766705 0.02679032685 -1 1602.550203
0.01887022414 0.02975264682 -1 1606.608119
0.03309298325 0.0121050817 -1 1605.65598
0.03384625203 -0.009903759303 -1 1603.209729
0.03519192358 -0.002322944025 -1 1603.959143
0.03527541025 -0.000423416702 -1 1604.787606
0.03376546199 0.01007142604 -1 1605.776512
0.03438390167 0.007836407691 -1 1606.17016
0.02430858141 0.02555588604 -1 1598.986885
0.0256007494 0.02427103192 -1 1599.802663
0.009714138892 0.03383283832 -1 1601.363081
0.006827754167 0.03456293564 -1 1601.471377
0.004135250145 0.03497898441 -1 1608.601979
0.03114933424 0.01654558948 -1 1606.086094
-0.003685928263 0.03504953304 -1 1607.673769
-0.005535806142 0.03483707342 -1 1607.875086
-0.007755677241 0.03440117341 -1 1610.365862
-0.01172692283 0.03324642363 -1 1608.926381
-0.009957392949 0.03382130484 -1 1608.382265
-0.03398535802 0.009365080599 -1 1600.217388
-0.033247529 -0.0117745048 -1 1608.61973
-0.03379530524 -0.01007072945 -1 1606.751202
-0.009822339061 -0.0338596633 -1 1602.485251
-0.0119019369 -0.03317800508 -1 1606.176958
-0.001573487188 -0.03522900661 -1 1599.815287
0.00126775221 -0.03523864139 -1 1598.094284
0.007776676044 -0.03439568375 -1 1600.720093
0.009669172761 -0.03389755094 -1 1601.669764
0.01180017222 -0.0332286646 -1 1606.747304
0.01856053586 -0.02998054543 -1 1605.805406
0.01665184017 -0.03109778898 -1 1606.225428
-0.01882341544 -0.02979921446 -1 1606.813826
-0.01693055357 -0.0309158664 -1 1605.099961
0.006560826347 -0.03467064158 -1 1602.52055