# p  FACE_DATA 1436
# x  y  z  p
-0.01592896667 -0.01653226667 -1 -32134.94795
0.01657313333 0.0160208 -1 -32037.97112
-0.01359063333 0.0128176 -1 -32108.757
-0.01482033333 0.01432873333 -1 -32112.65441
0.01211303667 0.01419776667 -1 -32100.77609
0.01388393333 0.0126157 -1 -32109.32215
0.001551908 0.00029166 -1 -32208.11026
-0.0007156886667 -0.00105012 -1 -32236.64342
-0.008560706667 -0.0216334 -1 -32102.97675
0.003726083333 -0.02337806667 -1 -32049.36688
-0.001686294667 -0.02345993333 -1 -32047.25557
-0.02261056667 -0.006060163333 -1 -32101.63786
-0.02299816667 -0.004418926667 -1 -32110.2346
-0.02246676667 0.005203306667 -1 -31990.73493
-0.02320146667 0.00279448 -1 -31990.64442
-0.00498936 0.0229274 -1 -32012.26932
-0.003743463333 0.02230256667 -1 -32046.16133
0.004729936667 0.02282936667 -1 -32100.9213
-0.0003052272667 0.02244516667 -1 -32136.78189
0.0008993827333 0.0232875 -1 -32102.61773
0.0033239 0.02235963333 -1 -32142.9611
0.00805101 0.02213043333 -1 -32026.19777
-0.003047013333 0.02294196667 -1 -32045.65491
0.02315596667 0.001468849 -1 -32029.62375
-0.006040296667 -0.01846966667 -1 -32120.74361
-0.008658103333 -0.02018026667 -1 -32057.89461
-0.01128343 -0.01875673333 -1 -32088.0017
-0.01064229667 -0.0168819 -1 -32150.33231
-0.008939163333 -0.016511 -1 -32123.30477
-0.002640472 -0.0196662 -1 -32124.08171
-0.001521776667 -0.02118863333 -1 -32138.27996
-0.0007416493667 -0.0235195 -1 -32060.06808
-0.002363281333 -0.02268506667 -1 -32055.05384
-0.005385393333 -0.02187766667 -1 -32130.4482
-0.01372963333 -0.01867993333 -1 -32042.65512
-0.01551826667 -0.01773573333 -1 -32074.05343
-0.01233753333 -0.01583263333 -1 -32076.96483
-0.01393723333 -0.01649033333 -1 -32097.70092
-0.0165166 -0.016559 -1 -32127.34444
-0.01530713333 -0.01555403333 -1 -32110.76913
-0.01255346667 -0.01380173333 -1 -32088.04721
-0.01466716667 -0.0130684 -1 -32106.44615
-0.01582113333 -0.014163 -1 -32109.11343
-0.006241333333 -0.01460193333 -1 -32108.40643
-0.008293616667 -0.01477683333 -1 -32159.60957
-0.01107326 -0.01256973333 -1 -32121.52659
-0.008040483333 -0.01088154 -1 -32224.04445
-0.009153743333 -0.01293456667 -1 -32091.97991
-0.01489666667 -0.01103637333 -1 -32113.26073
-0.01666883333 -0.01048500667 -1 -32070.97742
-0.009315633333 -0.00919478 -1 -32175.02206
-0.01128879333 -0.01015660667 -1 -32184.76101
-0.0129985 -0.00935658 -1 -32127.03768
-0.01331833333 -0.007017463333 -1 -32147.98152
-0.01715733333 -0.008150286667 -1 -32109.66193
-0.015705 -0.006362536667 -1 -32169.32003
-0.02332943333 0.001398023333 -1 -32130.64415
-0.02321333333 -0.002317283333 -1 -32116.82952
-0.0233015 -0.001052146667 -1 -32107.28741
-0.022495 -0.00328184 -1 -32132.83268
-0.02207146667 0.003993153333 -1 -32094.10718
-0.02270326667 0.00026796 -1 -32125.75
-0.02108106667 -0.00289455 -1 -32108.97663
-0.01981813333 -0.00435292 -1 -32049.91713
0.01496203333 -0.002770838667 -1 -32145.23343
0.01880986667 -0.00754393 -1 -32116.66526
0.01756106667 -0.006321716667 -1 -32051.17662
0.01862416667 -0.009368483333 -1 -32152.10164
0.02011306667 -0.01006252333 -1 -32175.58653
0.0168075 -0.01083792667 -1 -32074.78284
0.0203416 -0.01137893333 -1 -32075.89093
0.02301863333 0.002832003333 -1 -31950.4931
0.02222336667 0.003871473333 -1 -32070.85996
0.01717916667 -0.002487185333 -1 -32127.31089
0.01834126667 -0.004197446667 -1 -32144.42508
0.01978043333 0.0002927566667 -1 -32117.36069
0.01789906667 -0.000560062 -1 -32091.97116
0.02349526667 -0.001601916 -1 -32021.54968
0.02120653333 -0.0006361033333 -1 -32099.36919
0.02273233333 0.0001634756667 -1 -32034.19472
0.0235328 -0.0007296303333 -1 -32013.97399
0.022801 -0.003308676667 -1 -32069.57417
0.020302 -0.004192863333 -1 -31995.15924
0.02137396667 -0.00275453 -1 -32051.26152
0.01875806667 -0.01301643333 -1 -31994.65282
0.01698396667 -0.01274003333 -1 -32007.2274
0.01668933333 -0.01551156667 -1 -32049.38461
0.01561256667 -0.01435653333 -1 -32044.13113
0.01645603333 -0.01647973333 -1 -31990.26765
0.01379646667 -0.01512173333 -1 -32064.83441
0.01095759333 -0.01844986667 -1 -32088.70875
0.0123613 -0.01864116667 -1 -32039.73672
0.0134755 -0.0183751 -1 -32028.91374
0.0152862 -0.006901776667 -1 -32119.29823
0.01384926667 -0.00506116 -1 -32104.32428
0.01471833333 -0.009593433333 -1 -32133.12399
0.0123352 -0.01378586667 -1 -32113.3065
0.01028757 -0.00951642 -1 -32169.99971
0.01247926667 -0.01086707333 -1 -32110.03058
0.00986414 -0.01715226667 -1 -32057.61522
0.01022911333 -0.0148173 -1 -32107.79511
0.00821159 -0.01105531333 -1 -32160.19899
0.0082972 -0.0134374 -1 -32124.65265
0.006265606667 -0.01450466667 -1 -32098.33463
0.004687583333 -0.01335726667 -1 -32176.27606
0.00624855 -0.01661663333 -1 -32101.25903
0.00791517 -0.01788433333 -1 -32120.43459
0.00457589 -0.0176349 -1 -32142.66569
0.001719268 -0.02001463333 -1 -32112.59381
0.0004626566667 -0.02127856667 -1 -32073.08909
0.001390178633 -0.0232679 -1 -32123.70632
0.003199173333 -0.0227858 -1 -32043.92643
0.0005657973 -0.02283456667 -1 -32099.85485
0.00487693 -0.01960023333 -1 -32129.08995
0.003568583333 -0.02068953333 -1 -32043.98755
-0.001880585333 -0.0177058 -1 -32182.69295
-0.003172333333 -0.0160694 -1 -32161.28759
-0.002349483333 -0.01419343333 -1 -32204.37753
-0.0005302333333 -0.01400073333 -1 -32166.00104
0.002967696667 -0.0138721 -1 -32141.87439
0.00291957 -0.0169554 -1 -32142.13327
0.0004186466667 -0.01538533333 -1 -32219.78093
0.001371294667 -0.01824583333 -1 -32177.36608
-0.0001088553333 -0.01721443333 -1 -32167.63821
0.002269483333 -0.0152879 -1 -32208.882
-0.00161266 0.01355823333 -1 -32166.68242
0.02069983333 0.00378931 -1 -32125.63019
0.01964536667 0.002373326667 -1 -32112.23376
0.01145931 -0.00502932 -1 -32197.88981
0.009841946667 -0.006939323333 -1 -32165.17972
0.01389926667 -0.0009581926667 -1 -32140.7868
0.014952 0.0009265173333 -1 -32189.31918
0.01673466667 0.001040994667 -1 -32107.13271
0.0004044566667 -0.005242376667 -1 -32240.0572
-0.001054623333 -0.003604986667 -1 -32229.40877
0.004662493333 -0.01135441667 -1 -32233.22308
0.006154906667 -0.01011973 -1 -32154.12833
0.00226098 -0.009115306667 -1 -32220.94038
0.002929886667 -0.01081881667 -1 -32176.04198
0.00028711 -0.0123142 -1 -32192.70446
0.001934203333 -0.012283 -1 -32235.59466
0.01187578667 -0.0009089336667 -1 -32180.91631
0.01054859667 -0.002689739667 -1 -32140.39274
0.01116812 0.0008222796667 -1 -32137.88955
0.00940542 0.001211087 -1 -32178.49462
0.009375046667 0.003102186667 -1 -32160.08163
0.00790402 -9.6143e-05 -1 -32193.52398
0.0059032 0.0006913966667 -1 -32187.85128
0.003851203333 -0.00087836 -1 -32251.3998
0.00833953 -0.002265756333 -1 -32234.62233
-0.005257603333 -0.01267916667 -1 -32208.54151
-0.006196626667 -0.01080104 -1 -32219.83062
-0.003348056667 -0.01257096667 -1 -32182.94723
-0.005110013333 -0.009207193333 -1 -32260.30151
0.0003536266667 -0.00900402 -1 -32192.91889
-0.00062645 -0.00737246 -1 -32221.29956
-0.002440476667 -0.01080279667 -1 -32211.99976
-0.00242757 -0.007621523333 -1 -32252.17419
-0.00326341 -0.00931715 -1 -32185.38676
-0.00062456 -0.01073873 -1 -32184.9734
-0.004851666667 -0.001367041667 -1 -32257.20475
-0.002887855333 0.000132795 -1 -32225.47614
-0.003153502 0.002211918333 -1 -32255.85041
-0.01172206667 -0.005270406667 -1 -32219.31393
-0.008717683333 -0.00735423 -1 -32180.88128
-0.009745343333 -0.005586706667 -1 -32164.11075
-0.00827595 -0.00389521 -1 -32271.53199
-0.005136056667 0.00488452 -1 -32244.35161
-0.005198543333 0.002852951667 -1 -32197.38404
-0.008501503333 -0.00193893 -1 -32284.45401
-0.0067685 -0.0005034116667 -1 -32267.44144
-0.00684973 0.001637458333 -1 -32164.01994
-0.0201527 -0.0008378133333 -1 -32106.19814
-0.02103766667 0.0006452366667 -1 -32055.60699
-0.01879823333 0.004025293333 -1 -32142.41173
-0.02053383333 0.002973973333 -1 -32126.4082
-0.01694366667 0.002885116667 -1 -32114.08837
-0.01045813 -0.001265709333 -1 -32254.23978
-0.0122093 -0.002905689333 -1 -32157.67145
-0.01801696667 -0.003282936667 -1 -32155.64404
-0.01460493333 -1.568266667e-05 -1 -32130.08746
-0.0182706 -0.0009383466667 -1 -32135.67311
-0.016758 0.0006191166667 -1 -32135.39224
-0.01617736667 -0.00401014 -1 -32141.10521
-0.01427793333 -0.002300349333 -1 -32181.82466
0.00531689 0.0195265 -1 -32068.65554
0.0016994 0.0133476 -1 -32173.92416
1.231333333e-05 0.0144302 -1 -32152.5105
0.00759376 0.0165977 -1 -32110.24654
0.00359044 0.0143401 -1 -32127.9552
0.003608116667 0.01645466667 -1 -32142.08509
0.005423266667 0.01752133333 -1 -32143.37094
0.009174916667 0.0175885 -1 -32092.67846
0.006951133333 0.0204055 -1 -32031.60699
0.006017013333 0.02250693333 -1 -32081.64644
0.009375453333 0.02161723333 -1 -32072.25677
0.009813053333 0.02033233333 -1 -32105.59344
-0.004147476667 0.02093773333 -1 -32027.94133
0.0033031 0.02063323333 -1 -32134.65819
0.002109943333 0.02319 -1 -32035.99938
-0.001216793933 0.02311783333 -1 -32128.54907
-0.002165013333 0.02304723333 -1 -32060.74058
-0.0003137876667 0.02059146667 -1 -32100.04704
1.406566667e-05 0.0164327 -1 -32138.31385
0.001718829 0.01746466667 -1 -32174.13564
0.001520189 0.01963806667 -1 -32139.6439
-0.001710537667 0.01930336667 -1 -32110.12201
-0.003473516667 0.0196642 -1 -32016.75851
-0.001581324333 0.017318 -1 -32172.47445
0.0186613 0.01409076667 -1 -31978.24596
0.01797213333 0.0149675 -1 -32077.07184
0.014122 0.01726563333 -1 -32094.37044
0.01237703667 0.01633843333 -1 -32094.74617
0.01265513333 0.01953446667 -1 -32017.88325
0.01675866667 0.01492393333 -1 -32070.61938
0.0159405 0.0132312 -1 -32089.59648
0.01605803333 0.0165406 -1 -32030.66995
0.0115347 0.0190973 -1 -32068.31516
0.01545686667 0.01708663333 -1 -32064.5982
0.01083443667 0.0174526 -1 -32108.49447
0.01369983333 0.01881696667 -1 -31995.9697
0.01113561333 0.003860196667 -1 -32180.7084
0.01221476667 0.002462292667 -1 -32192.36736
0.01397516667 0.002615789333 -1 -32151.01707
0.0177626 0.002704026667 -1 -32115.07961
0.005435856667 0.01322363333 -1 -32153.93513
0.007624026667 0.01441456667 -1 -32122.52686
0.00957865 0.01319953333 -1 -32141.14162
0.00519824 0.01100212 -1 -32226.49723
0.009131983333 0.01076049 -1 -32169.75274
0.006939743333 0.00975401 -1 -32182.75341
0.01082733667 0.00937291 -1 -32175.93115
0.0130449 0.01022988667 -1 -32117.27483
0.01027651667 0.007121816667 -1 -32150.404
0.01172448 0.00572748 -1 -32193.74727
0.001484606667 0.01125236667 -1 -32217.45882
0.00313803 0.01002335333 -1 -32174.42874
-0.00185089 0.01164496667 -1 -32204.90567
-0.00044071 0.0104217 -1 -32151.57098
-0.001948985333 0.003991143333 -1 -32252.23525
-0.00084906 0.00833136 -1 -32225.79174
-0.003285566667 0.00567432 -1 -32169.23823
-0.00281964 0.00760123 -1 -32196.82066
0.00070818 0.00692316 -1 -32186.6631
7.418133333e-05 0.004509853333 -1 -32201.96459
0.001806928 0.003023006667 -1 -32210.43788
0.002769953333 0.007784486667 -1 -32242.80342
0.0139393 0.00633644 -1 -32112.11338
0.01511083333 0.004622653333 -1 -32185.98357
0.0147089 0.008587753333 -1 -32158.92186
0.0171156 0.004596413333 -1 -32098.268
0.020235 0.005640163333 -1 -32026.32882
0.01853353333 0.006116566667 -1 -32026.27993
0.0169735 0.0094678 -1 -32089.39188
0.01859726667 0.008230886667 -1 -32110.85362
0.0188734 0.01254143333 -1 -32040.52154
0.02166263333 0.00810798 -1 -32016.63012
0.02049576667 0.01107403333 -1 -32000.25949
0.02049373333 0.00904946 -1 -32009.48028
0.01736606667 0.01172543333 -1 -32089.68003
0.02200646667 0.00712847 -1 -32030.97803
-0.004384243333 0.009150303333 -1 -32148.01852
-0.003823843333 0.0111037 -1 -32148.8468
-0.003324166667 0.01635176667 -1 -32110.98302
-0.00668175 0.01794023333 -1 -32123.43959
-0.004580703333 0.01771476667 -1 -32160.93764
-0.00335375 0.0145945 -1 -32159.08261
-0.004822013333 0.0130529 -1 -32136.38525
-0.006840893333 0.0133211 -1 -32164.81376
-0.01038063 0.01588596667 -1 -32110.3061
-0.01135782333 0.01335393333 -1 -32114.31737
-0.007929383333 0.0159605 -1 -32118.0499
-0.01141897333 0.01752526667 -1 -32099.58099
-0.0162952 0.01683946667 -1 -31999.899
-0.01525533333 0.01697493333 -1 -32052.65817
-0.01246923333 0.019786 -1 -32061.88655
-0.01072749667 0.001121180667 -1 -32242.99605
-0.0088521 0.00258883 -1 -32204.8051
-0.01280566667 0.001765867333 -1 -32186.88635
-0.0152265 0.00424537 -1 -32179.50304
-0.01324156667 0.00376092 -1 -32171.89102
-0.008201263333 0.0114885 -1 -32200.11425
-0.01026694667 0.01159586667 -1 -32151.21555
-0.006639943333 0.00595886 -1 -32182.87687
-0.0087048 0.004878663333 -1 -32247.6951
-0.007905136667 0.009339396667 -1 -32189.38432
-0.006354056667 0.008297733333 -1 -32209.81614
-0.01211686667 0.005560986667 -1 -32196.1478
-0.01107159 0.009601683333 -1 -32125.16013
-0.009745686667 0.00827008 -1 -32175.09314
-0.01025946333 0.00614822 -1 -32187.61146
-0.01337553333 0.00709002 -1 -32169.7684
-0.01284403333 0.009008856667 -1 -32165.61633
-0.0142722 0.01046670667 -1 -32156.37185
-0.0151622 0.00626686 -1 -32167.09895
-0.01643266667 0.009325663333 -1 -32126.3767
-0.01871003333 0.00616334 -1 -32099.02273
-0.01679116667 0.007044653333 -1 -32146.14831
-0.0179603 0.01030389 -1 -32105.42694
-0.016343 0.0137329 -1 -32089.26853
-0.01884316667 0.01269446667 -1 -32099.39645
0.008638666667 0.01939113333 -1 -32089.61255
0.01104956667 0.0201744 -1 -32097.3891
0.02091826667 0.01019064 -1 -32012.51884
0.0199548 0.01198576667 -1 -32000.84938
-0.005921903333 0.02270116667 -1 -32004.08951
-0.00731551 0.0198184 -1 -32022.16909
-0.005888423333 0.02086646667 -1 -32050.22256
-0.006416953333 0.02200506667 -1 -32037.02912
-0.01114254 0.019377 -1 -32058.53645
-0.009742493333 0.0208073 -1 -32028.50429
-0.01056560667 0.02039946667 -1 -32028.2571
-0.01415643333 0.01613176667 -1 -32075.97605
-0.01691153333 0.01622546667 -1 -31992.44699
-0.0131311 0.01862283333 -1 -32079.95327
-0.00745474 0.02223253333 -1 -32011.21053
-0.008647073333 0.02067636667 -1 -32042.56946
-0.008257773333 0.0219519 -1 -31992.54171
-0.02062966667 0.01020365667 -1 -32041.55516
-0.0200076 0.01218186667 -1 -32097.6121
-0.0200558 0.007462906667 -1 -32063.20143
-0.02198623333 0.00693933 -1 -32012.20489
-0.01966456667 0.009322446667 -1 -32063.20721
-0.02188006667 0.008824603333 -1 -32003.92417
-0.02056316667 0.01119113333 -1 -32032.05177
-0.02158 0.009515293333 -1 -31994.40901
-0.01425923333 -0.01773866667 -1 -32112.18004
-0.01084256333 -0.0199438 -1 -32093.12047
-0.004504563333 -0.02284223333 -1 -32090.31461
-0.003580836667 -0.02301086667 -1 -32068.08657
-0.007605313333 -0.02198253333 -1 -32035.78242
-0.00777254 -0.01843606667 -1 -32106.35473
-0.01920386667 -0.007800873333 -1 -32106.92148
-0.020356 -0.006087533333 -1 -32136.2651
-0.02189976667 -0.006600163333 -1 -32125.65843
-0.01727063333 -0.0142765 -1 -32035.19333
-0.01835243333 -0.0119934 -1 -32081.09821
-0.02044916667 -0.00913407 -1 -32046.31028
-0.01705166667 -0.01602383333 -1 -32100.62548
-0.017595 -0.01541143333 -1 -32066.44232
-0.01845103333 -0.013708 -1 -32019.65894
-0.02183756667 -0.008597846667 -1 -32036.02901
-0.0197076 -0.01174066667 -1 -32085.76659
-0.0205738 -0.01017324333 -1 -32045.56417
0.0202657 -0.007015363333 -1 -32060.86129
0.02225806667 -0.00750208 -1 -32078.13251
0.02097763333 -0.005788566667 -1 -32082.15791
0.0224772 -0.006806 -1 -32038.67718
0.02152273333 -0.008612823333 -1 -32088.65167
0.0179744 -0.01514813333 -1 -32022.0468
0.015886 -0.0170437 -1 -31976.59616
0.01867173333 -0.0142695 -1 -31957.127
0.0197642 -0.01238133333 -1 -32021.01122
0.02129063333 -0.007822943333 -1 -32056.99684
0.0212074 -0.00933083 -1 -32174.54297
0.00593675 -0.0225258 -1 -32058.24421
0.00782603 -0.0221214 -1 -32010.91779
0.00776417 -0.019654 -1 -32074.86917
0.00639859 -0.02035163333 -1 -32056.16863
0.0066552 -0.021777 -1 -32060.03974
0.01046142667 -0.020145 -1 -32068.33216
0.00887399 -0.02078086667 -1 -32035.9263
0.00867924 -0.0218229 -1 -32002.76272
0.01134866667 -0.0206751 -1 -32079.90213
0.009857876667 -0.02092216667 -1 -32051.32092
0.0151818 -0.01765643333 -1 -32017.8696
0.01389803333 -0.0171847 -1 -32044.02598
0.01228413333 -0.02011256667 -1 -31995.36798
-0.02019516667 -0.01092203333 -1 -32053.28857
-0.02213603333 -0.00777728 -1 -32072.92567
-0.01497173333 0.01797233333 -1 -32102.94881
-0.01862206667 0.01398463333 -1 -31972.08806
-0.0170089 0.01507653333 -1 -32101.77037
0.008200073333 0.00623519 -1 -32219.95373
0.004120046667 0.004140873333 -1 -32195.83121
0.00788747 0.004082843333 -1 -32216.96995
0.006558653333 0.007479803333 -1 -32192.67424
0.005917023333 0.002979283333 -1 -32220.03584
0.004449073333 0.006489046667 -1 -32220.39182
-0.006732176667 -0.006615256667 -1 -32228.25832
-0.00327542 -0.00452604 -1 -32251.72822
-0.006591576667 -0.00456366 -1 -32199.70885
-0.005382936667 -0.00740906 -1 -32238.97193
-0.004900296667 -0.00347101 -1 -32268.30042
-0.00361746 -0.006412493333 -1 -32204.50903
0.005701736667 -0.007911023333 -1 -32215.26448
0.004233586667 -0.003335666667 -1 -32210.05737
0.003540416667 -0.0074422 -1 -32218.10518
0.007312796667 -0.00626951 -1 -32186.87545
0.00266397 -0.00520083 -1 -32234.9947
0.006721093333 -0.003935523333 -1 -32200.84804
-0.0127676 -0.0193479 -1 -32107.93711
-0.005154636667 -0.0163697 -1 -32173.00372
-0.00481788 -0.02012976667 -1 -32142.4394
-0.00653798 -0.0223109 -1 -32075.32658
0.02274326667 0.005407036667 -1 -32051.67743
0.02160833333 0.006365513333 -1 -32034.62095
-0.02132096667 0.007653426667 -1 -32085.23611
-0.02225303333 0.006048843333 -1 -31998.98325
-0.0228329 -0.00522625 -1 -32046.83591
0.0222217 -0.005900066667 -1 -32037.74893
0.02340346667 -0.002533313333 -1 -32060.13426
0.02289816667 -0.00527143 -1 -32018.57158
0.02308203333 -0.004421353333 -1 -32026.34409
0.002432583333 -0.02320233333 -1 -32076.93169
0.004961756667 -0.02245153333 -1 -32016.2579
0.00479776 -0.0231832 -1 -31989.88001
0.008577656667 0.02196236667 -1 -32028.72911
0.00700894 0.02178773333 -1 -32069.90407
-0.01406863333 0.01867456667 -1 -32060.4976
-0.0129353 0.01707743333 -1 -32046.12387
0.004265856667 -0.0232942 -1 -32022.18942
0.003902943333 -0.02197026667 -1 -32148.13646
-0.01002782667 -0.02038196667 -1 -32088.67776
-0.017921 0.01487853333 -1 -32063.67042
-0.0174762 0.01224473333 -1 -32109.21772
0.003964803114 -0.02639011143 -1 -32000.28948
-0.004069797398 -0.02631451343 -1 -31974.93535
-0.005587385332 -0.02603773466 -1 -31975.60381
0.02345098314 -0.01260386162 -1 -31984.04507
0.02515243023 -0.008677880586 -1 -31995.96195
-0.02527551201 0.008482418524 -1 -31956.25024
-0.0262196907 -0.00473641603 -1 -31968.96533
-0.02644748794 -0.00319070719 -1 -32038.87783
-0.02595199449 -0.006095163473 -1 -31948.70165
-0.02635620825 0.003611698982 -1 -31878.45544
-0.0260436287 0.005564332273 -1 -31982.97416
0.009800471483 0.02484759365 -1 -31957.59668
0.008871268646 0.02509499433 -1 -31964.37005
0.02638125415 0.003716231986 -1 -31844.98399
0.02659630511 0.001463067807 -1 -31913.32826
0.02616526182 -0.004736809547 -1 -31991.30507
0.02641283363 -0.003320164571 -1 -31981.32932
0.02597343644 -0.006198002457 -1 -31993.03859
-0.02026868169 0.01727993241 -1 -31912.51145
-0.01933532307 0.01834182102 -1 -31980.01189
-0.01830375418 0.01936733349 -1 -31987.00824
-0.01724079762 0.02035917358 -1 -31935.23126
-0.01740141346 -0.02021762268 -1 -31935.36731
-0.01840447888 -0.0193042407 -1 -31916.21539
-0.01930090847 -0.01838506068 -1 -31916.34294
-0.02021488479 -0.01735760906 -1 -31993.1046
0.01928839035 -0.01839715604 -1 -31966.10683
0.018328002 -0.01935309696 -1 -31975.05396
0.01572213978 -0.02153147549 -1 -31933.51519
0.01714160576 -0.02037408147 -1 -31968.90937
0.02021138367 -0.01734073951 -1 -31938.53898
0.02131756796 -0.01590485606 -1 -31850.34666
0.02247819507 -0.01432112142 -1 -31953.54044
-0.02141596234 -0.01576115213 -1 -31870.88961
-0.01596333157 -0.02132117676 -1 -31835.22091
-0.02267587214 -0.0140474666 -1 -31923.83783
-0.02137500036 0.01581968089 -1 -31836.4617
-0.02261103392 0.01415753548 -1 -31931.25171
-0.01570893067 0.02142628128 -1 -31877.41658
-0.01401012174 0.0226993843 -1 -31888.77581
0.02022738907 0.01735949223 -1 -31906.04473
0.02134907127 0.01587728372 -1 -31837.1985
0.02259163897 0.01410799648 -1 -31868.88461
0.0160090021 0.0212168635 -1 -31882.20419
0.01741830906 0.02016917809 -1 -31925.1075
0.01435078748 0.02243196803 -1 -31938.40853
0.0249197318 0.009352550402 -1 -32008.98158
0.02553798605 -0.007558888075 -1 -31999.71446
0.02657832144 -0.001795668059 -1 -32009.75287
0.02666568295 -0.0003284361344 -1 -31994.37021
0.02547608833 0.007744744329 -1 -31941.30223
0.02595156667 0.005954227552 -1 -31925.5565
0.01845812701 0.01925414667 -1 -31965.06746
0.01934984107 0.01835674726 -1 -31964.32287
0.007200406802 0.02561054072 -1 -31878.808
0.005047099085 0.02609764807 -1 -31881.3209
0.002993496111 0.02644232312 -1 -31909.93973
0.02348652567 0.01259983277 -1 -31978.13212
-0.002595189228 0.02656125316 -1 -31937.20111
-0.004084133173 0.02630373031 -1 -31944.94198
-0.005682664736 0.02605324143 -1 -32003.16574
-0.0085748103 0.02525063857 -1 -31983.54727
-0.007237934939 0.0256140429 -1 -32000.4159
-0.02569451464 0.006958246063 -1 -31988.60928
-0.02514777966 -0.008802397821 -1 -32009.97307
-0.02556401082 -0.007495630997 -1 -32015.52523
-0.007114195257 -0.02566663695 -1 -31982.79779
-0.008819456772 -0.02508938363 -1 -31885.03649
-0.0009947787293 -0.02665323261 -1 -32003.6217
0.0009708377723 -0.02664953435 -1 -32023.25229
0.00579409444 -0.02608334672 -1 -31977.94867
0.007146929583 -0.02563999647 -1 -32028.16114
0.008853051948 -0.02511286213 -1 -32022.59107
0.01408650223 -0.0225783804 -1 -31920.02858
0.01257100227 -0.02350854145 -1 -32026.90097
-0.01434808751 -0.02243833259 -1 -31936.62654
-0.01290354951 -0.02327858019 -1 -31961.09939
0.004853615537 -0.02617376116 -1 -31992.89184
-0.002580675005 -0.02649789847 -1 -31976.13711
-0.02348365743 -0.01264383535 -1 -32027.80737
-0.02353354405 0.01243272486 -1 -32026.26583
-0.01243733264 0.02356992896 -1 -32010.66831
0.01271129809 0.02341524062 -1 -31983.34044
0.0009208217003 0.02668736542 -1 -31929.79724
-0.0009322715882 0.02665822304 -1 -31969.67552
-0.02664409789 0.001241258519 -1 -31966.33266
-0.02661325714 -0.001074743236 -1 -31985.36496
0.01101342104 0.0241650689 -1 -31954.41382
0.02426432093 0.0110998252 -1 -31995.69217
-0.009842084536 0.02470935085 -1 -31956.50225
-0.01110074914 0.02421489192 -1 -31983.25015
-0.02438041523 0.01082068409 -1 -31944.86929
-0.02461028342 -0.0100872063 -1 -31977.17918
-0.02412717026 -0.01139105297 -1 -31987.43699
0.02428681803 -0.01091006081 -1 -31980.45798
0.02480955551 -0.009716136429 -1 -31986.12701
0.01131429131 -0.02414312429 -1 -32010.48469
0.01023261164 -0.02460163277 -1 -31993.6039
-0.01037306692 -0.02457419942 -1 -31922.21175
-0.01157551459 -0.02402133207 -1 -31924.20252
-0.02470498609 0.009634382738 -1 -31943.13887
0.002758032806 -0.02651083612 -1 -31988.48617
0.004760318503 -0.03097056805 -1 -31933.20571
-0.004987896161 -0.03095082934 -1 -31894.19896
-0.006755276255 -0.030596909 -1 -31924.04311
0.02764425078 -0.01473791691 -1 -31909.22402
0.02962337553 -0.01017978921 -1 -31926.83372
-0.02966328035 0.01009144727 -1 -31871.9886
-0.03084653108 -0.005617333344 -1 -31912.50841
-0.03110847546 -0.003783365558 -1 -31986.43817
-0.03050149227 -0.007257262754 -1 -31886.2741
-0.03100175463 0.004321504531 -1 -31842.3548
-0.03066047329 0.006578143507 -1 -31944.87703
0.01172750264 0.02908896105 -1 -31892.2725
0.01061985347 0.02948050214 -1 -31898.0279
0.03104867448 0.004350981198 -1 -31791.65484
0.03129423264 0.001694180248 -1 -31848.2528
0.03086048905 -0.005448402925 -1 -31908.88636
0.03110552183 -0.003838973017 -1 -31900.62114
0.03051628165 -0.00719039764 -1 -31912.87013
-0.0238699175 0.02033469333 -1 -31879.94967
-0.02272774159 0.02159166501 -1 -31898.55805
-0.02150362325 0.02280163094 -1 -31899.24706
-0.02018058419 0.02398421719 -1 -31872.654
-0.02043176934 -0.02377263905 -1 -31893.41692
-0.02166942708 -0.02266135245 -1 -31846.35713
-0.02276548765 -0.02156221511 -1 -31853.82559
-0.02384815037 -0.02032700511 -1 -31901.57208
0.02268644716 -0.02162754441 -1 -31917.02284
0.02154575395 -0.02276821358 -1 -31919.30145
0.0183798341 -0.0253449385 -1 -31872.71002
0.02013310182 -0.02401484486 -1 -31859.68381
0.02382551902 -0.02038792184 -1 -31873.86465
0.02515157995 -0.01869928901 -1 -31813.22727
0.02642113128 -0.01679082355 -1 -31874.43463
-0.02524426509 -0.01851648872 -1 -31830.11997
-0.01871176739 -0.02513030871 -1 -31799.80542
-0.02664795704 -0.01650248275 -1 -31870.71312
-0.02511759736 0.01867334913 -1 -31837.66377
-0.02648875422 0.01671558285 -1 -31869.48081
-0.01845391244 0.02529330974 -1 -31851.94618
-0.01646438297 0.02664163988 -1 -31848.21938
0.02387315777 0.0203366343 -1 -31843.41574
0.0251955093 0.01858159568 -1 -31817.48305
0.02660732848 0.01654208011 -1 -31822.41746
0.01882188866 0.02507281415 -1 -31843.2373
0.02039116202 0.02377403513 -1 -31880.72029
0.01684411157 0.02636626155 -1 -31857.38571
0.02938312794 0.01088263486 -1 -31966.02744
0.03004419333 -0.008898078392 -1 -31935.93096
0.03125175896 -0.00208312431 -1 -31937.70916
0.03132509101 -0.0003879252352 -1 -31936.54976
0.02999684262 0.009010697931 -1 -31897.39074
0.03053308778 0.006970881809 -1 -31871.41474
0.02164559964 0.02269076865 -1 -31842.41358
0.02276195903 0.02157988897 -1 -31841.66964
0.008590347538 0.03007800077 -1 -31857.49328
0.006055093768 0.03072254113 -1 -31859.9332
0.0036578921 0.03111656775 -1 -31856.13253
0.02765730999 0.01478210096 -1 -31933.37905
-0.00321703715 0.03113021318 -1 -31900.77665
-0.004932629202 0.03092755772 -1 -31909.07606
-0.006849073427 0.0306018551 -1 -31934.02048
-0.01033422231 0.02961692762 -1 -31913.37395
-0.008743731126 0.03008244266 -1 -31930.48827
-0.03023482079 0.008254387026 -1 -31944.96819
-0.02954329043 -0.01043673691 -1 -31946.79846
-0.03002566575 -0.008921946112 -1 -31963.46392
-0.00856652249 -0.0301545327 -1 -31915.39886
-0.01046804252 -0.02949284533 -1 -31795.21555
-0.00131442531 -0.03132136502 -1 -31946.88541
0.001128845425 -0.03133043399 -1 -31953.67046
0.006884132163 -0.03058943808 -1 -31907.66679
0.008546285284 -0.03013716348 -1 -31953.15749
0.01046984594 -0.02950075932 -1 -31938.54913
0.01652816068 -0.02660204 -1 -31856.32894
0.01480154995 -0.02764118199 -1 -31968.39141
-0.01678415533 -0.02645095388 -1 -31869.28524
-0.0151039799 -0.02746229516 -1 -31914.11697
0.005782714894 -0.0307837008 -1 -31921.25006
-0.003232896173 -0.03117401701 -1 -31917.04361
-0.02764000221 -0.01483381945 -1 -31979.86387
-0.02760707253 0.01470452187 -1 -31956.72736
-0.01466779282 0.02771247669 -1 -31960.04359
0.0149630068 0.027485124 -1 -31942.69538
0.00107926563 0.03133823292 -1 -31882.53843
-0.001250689762 0.03132310429 -1 -31926.88677
-0.03129418215 0.001491839678 -1 -31894.91275
-0.03128519004 -0.001312000934 -1 -31950.19299
0.01314207488 0.02841629388 -1 -31887.76508
0.0285209212 0.01294399806 -1 -31941.04698
-0.01179296731 0.02901283581 -1 -31895.07995
-0.01315419601 0.0284760293 -1 -31924.74514
-0.02862585333 0.01279284598 -1 -31854.13305
-0.02900052467 -0.01189518411 -1 -31901.26049
-0.02839021512 -0.01333902307 -1 -31938.74455
0.02863402436 -0.0126848679 -1 -31935.42206
0.02919103497 -0.01131083461 -1 -31935.48592
0.0133446171 -0.02839912481 -1 -31944.57667
0.01207543835 -0.02899050914 -1 -31909.75515
-0.01213076242 -0.02889832504 -1 -31846.39206
-0.0135314094 -0.02828423933 -1 -31873.51249
-0.0291505992 0.01145599712 -1 -31859.30146
0.003328299931 -0.03117780851 -1 -31917.23554
0.005446080987 -0.03484744009 -1 -31899.93428
-0.005775044779 -0.03477021661 -1 -31854.38671
-0.007762766108 -0.03440668363 -1 -31850.21406
0.03111835057 -0.01647640954 -1 -31876.51462
0.03340074044 -0.01139516858 -1 -31888.5886
-0.03332675397 0.01147008977 -1 -31833.85784
-0.03471177795 -0.006253631417 -1 -31891.0259
-0.03501186732 -0.004161852763 -1 -31965.66303
-0.03430875684 -0.008155689242 -1 -31867.65716
-0.0348999177 0.004865029099 -1 -31829.82409
-0.03448686638 0.007398171595 -1 -31902.17999
0.01324962507 0.0326598642 -1 -31816.83061
0.01202562297 0.03314042455 -1 -31811.60514
0.0349253126 0.00484911449 -1 -31762.10253
0.03520342522 0.001877753837 -1 -31824.61749
0.03474411875 -0.006086822938 -1 -31881.91513
0.03499311586 -0.004278604842 -1 -31871.46297
0.03430279765 -0.007993704171 -1 -31874.93568
-0.02687397618 0.02283630734 -1 -31874.60142
-0.02556593355 0.02427889709 -1 -31883.3188
-0.02421469945 0.02563076384 -1 -31882.55175
-0.02270528608 0.02696173587 -1 -31847.04569
-0.02295848295 -0.02676350374 -1 -31878.50315
-0.02436884847 -0.02549326541 -1 -31910.84627
-0.02560887028 -0.02424758146 -1 -31911.16331
-0.02688620487 -0.02283771562 -1 -31871.87845
0.02551444865 -0.02434349491 -1 -31821.77466
0.02423752885 -0.02561977926 -1 -31827.50589
0.0206575236 -0.02858171385 -1 -31846.45079
0.02262108904 -0.02700918126 -1 -31816.88817
0.02674940008 -0.02293417046 -1 -31838.58715
0.02829311088 -0.02103349248 -1 -31782.84923
0.02979189617 -0.01886510748 -1 -31821.29768
-0.02846784258 -0.02077666893 -1 -31832.57565
-0.02099943386 -0.02830865364 -1 -31795.65976
-0.03000250386 -0.01852137528 -1 -31871.7494
-0.02833259584 0.02098257028 -1 -31836.15809
-0.02979086994 0.01879697082 -1 -31847.25085
-0.0207521154 0.02850060345 -1 -31841.78546
-0.01853029861 0.02999113022 -1 -31846.1728
0.02686064666 0.02281809962 -1 -31825.1301
0.02841708093 0.02087212065 -1 -31805.5532
0.02999187951 0.01855080344 -1 -31817.82098
0.021090449 0.02826052229 -1 -31805.68999
0.02291766705 0.02679032685 -1 -31861.37841
0.01887022414 0.02975264682 -1 -31825.39369
0.03309298325 0.0121050817 -1 -31942.37339
0.03384625203 -0.009903759303 -1 -31903.59942
0.03519192358 -0.002322944025 -1 -31904.78069
0.03527541025 -0.000423416702 -1 -31907.50127
0.03376546199 0.01007142604 -1 -31861.49422
0.03438390167 0.007836407691 -1 -31845.84335
0.02430858141 0.02555588604 -1 -31800.72802
0.0256007494 0.02427103192 -1 -31795.5365
0.009714138892 0.03383283832 -1 -31827.40844
0.006827754167 0.03456293564 -1 -31831.92459
0.004135250145 0.03497898441 -1 -31840.40021
0.03114933424 0.01654558948 -1 -31912.04075
-0.003685928263 0.03504953304 -1 -31880.16047
-0.005535806142 0.03483707342 -1 -31875.43144
-0.007755677241 0.03440117341 -1 -31903.1439
-0.01172692283 0.03324642363 -1 -31885.18853
-0.009957392949 0.03382130484 -1 -31899.85671