# p  FACE_DATA 1436
# x y z  p
-0.01592896667 -0.01653226667 -1 -0.0221166
0.01657313333 0.0160208 -1 -0.046897
-0.01359063333 0.0128176 -1 -0.0304202
-0.01482033333 0.01432873333 -1 -0.0309475
0.01211303667 0.01419776667 -1 -0.0264403
0.01388393333 0.0126157 -1 -0.0229654
0.001551908 0.00029166 -1 -0.0311552
-0.0007156886667 -0.00105012 -1 -0.0220831
-0.008560706667 -0.0216334 -1 -0.011719
0.003726083333 -0.02337806667 -1 -0.00536873
-0.001686294667 -0.02345993333 -1 -0.00588325
-0.02261056667 -0.006060163333 -1 -0.0327801
-0.02299816667 -0.004418926667 -1 -0.0108685
-0.02246676667 0.005203306667 -1 -0.0331885
-0.02320146667 0.00279448 -1 -0.0220889
-0.00498936 0.0229274 -1 -0.0696569
-0.003743463333 0.02230256667 -1 -0.0444772
0.004729936667 0.02282936667 -1 -0.0596094
-0.0003052272667 0.02244516667 -1 -0.0318885
0.0008993827333 0.0232875 -1 -0.0270654
0.0033239 0.02235963333 -1 -0.0225665
0.00805101 0.02213043333 -1 -0.0672978
-0.003047013333 0.02294196667 -1 -0.0463695
0.02315596667 0.001468849 -1 -0.0353329
-0.006040296667 -0.01846966667 -1 -0.0163146
-0.008658103333 -0.02018026667 -1 -0.00837705
-0.01128343 -0.01875673333 -1 -0.0164119
-0.01064229667 -0.0168819 -1 -0.0143119
-0.008939163333 -0.016511 -1 -0.0200297
-0.002640472 -0.0196662 -1 -0.0108787
-0.001521776667 -0.02118863333 -1 -0.0142593
-0.0007416493667 -0.0235195 -1 -0.00862125
-0.002363281333 -0.02268506667 -1 -0.0142277
-0.005385393333 -0.02187766667 -1 -0.0273856
-0.01372963333 -0.01867993333 -1 -0.00973467
-0.01551826667 -0.01773573333 -1 -0.0292415
-0.01233753333 -0.01583263333 -1 -0.0185467
-0.01393723333 -0.01649033333 -1 -0.0142014
-0.0165166 -0.016559 -1 -0.0326317
-0.01530713333 -0.01555403333 -1 -0.0158707
-0.01255346667 -0.01380173333 -1 -0.0160916
-0.01466716667 -0.0130684 -1 -0.0275852
-0.01582113333 -0.014163 -1 -0.0134468
-0.006241333333 -0.01460193333 -1 -0.0152595
-0.008293616667 -0.01477683333 -1 -0.0329682
-0.01107326 -0.01256973333 -1 -0.0306813
-0.008040483333 -0.01088154 -1 -0.0294877
-0.009153743333 -0.01293456667 -1 -0.032284
-0.01489666667 -0.01103637333 -1 -0.0220158
-0.01666883333 -0.01048500667 -1 -0.0318806
-0.009315633333 -0.00919478 -1 -0.0149393
-0.01128879333 -0.01015660667 -1 -0.0276181
-0.0129985 -0.00935658 -1 -0.0208097
-0.01331833333 -0.007017463333 -1 -0.0202992
-0.01715733333 -0.008150286667 -1 -0.0354697
-0.015705 -0.006362536667 -1 -0.0267104
-0.02332943333 0.001398023333 -1 -0.0150647
-0.02321333333 -0.002317283333 -1 -0.0227045
-0.0233015 -0.001052146667 -1 -0.00661372
-0.022495 -0.00328184 -1 -0.0216887
-0.02207146667 0.003993153333 -1 -0.0308119
-0.02270326667 0.00026796 -1 -0.0047448
-0.02108106667 -0.00289455 -1 -0.0170335
-0.01981813333 -0.00435292 -1 -0.0203482
0.01496203333 -0.002770838667 -1 -0.0289153
0.01880986667 -0.00754393 -1 -0.032991
0.01756106667 -0.006321716667 -1 -0.0185745
0.01862416667 -0.009368483333 -1 -0.0175063
0.02011306667 -0.01006252333 -1 -0.0262148
0.0168075 -0.01083792667 -1 -0.0183977
0.0203416 -0.01137893333 -1 -0.0236698
0.02301863333 0.002832003333 -1 -0.0221326
0.02222336667 0.003871473333 -1 -0.0427357
0.01717916667 -0.002487185333 -1 -0.0278004
0.01834126667 -0.004197446667 -1 -0.0243675
0.01978043333 0.0002927566667 -1 -0.036763
0.01789906667 -0.000560062 -1 -0.0204556
0.02349526667 -0.001601916 -1 -0.0505431
0.02120653333 -0.0006361033333 -1 -0.0305984
0.02273233333 0.0001634756667 -1 -0.0281435
0.0235328 -0.0007296303333 -1 -0.0272038
0.022801 -0.003308676667 -1 -0.0234058
0.020302 -0.004192863333 -1 -0.0200387
0.02137396667 -0.00275453 -1 -0.020684
0.01875806667 -0.01301643333 -1 -0.0240869
0.01698396667 -0.01274003333 -1 -0.0266843
0.01668933333 -0.01551156667 -1 -0.0307659
0.01561256667 -0.01435653333 -1 -0.0201542
0.01645603333 -0.01647973333 -1 -0.0274307
0.01379646667 -0.01512173333 -1 -0.00777832
0.01095759333 -0.01844986667 -1 -0.0067712
0.0123613 -0.01864116667 -1 -0.021065
0.0134755 -0.0183751 -1 -0.0204092
0.0152862 -0.006901776667 -1 -0.0234491
0.01384926667 -0.00506116 -1 -0.0200124
0.01471833333 -0.009593433333 -1 -0.0196907
0.0123352 -0.01378586667 -1 -0.0268254
0.01028757 -0.00951642 -1 -0.0305129
0.01247926667 -0.01086707333 -1 -0.0166129
0.00986414 -0.01715226667 -1 -0.0136693
0.01022911333 -0.0148173 -1 -0.0137915
0.00821159 -0.01105531333 -1 -0.0249889
0.0082972 -0.0134374 -1 -0.0154317
0.006265606667 -0.01450466667 -1 -0.0127007
0.004687583333 -0.01335726667 -1 -0.0214194
0.00624855 -0.01661663333 -1 -0.0227725
0.00791517 -0.01788433333 -1 -0.0176277
0.00457589 -0.0176349 -1 -0.0262154
0.001719268 -0.02001463333 -1 -0.0115242
0.0004626566667 -0.02127856667 -1 -0.00707301
0.001390178633 -0.0232679 -1 -0.00272322
0.003199173333 -0.0227858 -1 -0.00570533
0.0005657973 -0.02283456667 -1 -0.00552426
0.00487693 -0.01960023333 -1 -0.0132162
0.003568583333 -0.02068953333 -1 -0.0136732
-0.001880585333 -0.0177058 -1 -0.0190967
-0.003172333333 -0.0160694 -1 -0.0174451
-0.002349483333 -0.01419343333 -1 -0.0161206
-0.0005302333333 -0.01400073333 -1 -0.0223024
0.002967696667 -0.0138721 -1 -0.019529
0.00291957 -0.0169554 -1 -0.0280339
0.0004186466667 -0.01538533333 -1 -0.0286673
0.001371294667 -0.01824583333 -1 -0.0159465
-0.0001088553333 -0.01721443333 -1 -0.0253544
0.002269483333 -0.0152879 -1 -0.0292095
-0.00161266 0.01355823333 -1 -0.0138147
0.02069983333 0.00378931 -1 -0.0296602
0.01964536667 0.002373326667 -1 -0.0281247
0.01145931 -0.00502932 -1 -0.0313562
0.009841946667 -0.006939323333 -1 -0.0256237
0.01389926667 -0.0009581926667 -1 -0.0239876
0.014952 0.0009265173333 -1 -0.0245336
0.01673466667 0.001040994667 -1 -0.017015
0.0004044566667 -0.005242376667 -1 -0.0173346
-0.001054623333 -0.003604986667 -1 -0.0317248
0.004662493333 -0.01135441667 -1 -0.0206172
0.006154906667 -0.01011973 -1 -0.0240436
0.00226098 -0.009115306667 -1 -0.0161368
0.002929886667 -0.01081881667 -1 -0.0284988
0.00028711 -0.0123142 -1 -0.0265452
0.001934203333 -0.012283 -1 -0.0376229
0.01187578667 -0.0009089336667 -1 -0.0234384
0.01054859667 -0.002689739667 -1 -0.0186471
0.01116812 0.0008222796667 -1 -0.0326566
0.00940542 0.001211087 -1 -0.0253851
0.009375046667 0.003102186667 -1 -0.0244858
0.00790402 -9.6143e-05 -1 -0.0316689
0.0059032 0.0006913966667 -1 -0.0343787
0.003851203333 -0.00087836 -1 -0.0431678
0.00833953 -0.002265756333 -1 -0.0281353
-0.005257603333 -0.01267916667 -1 -0.0137097
-0.006196626667 -0.01080104 -1 -0.0218109
-0.003348056667 -0.01257096667 -1 -0.0162576
-0.005110013333 -0.009207193333 -1 -0.0156232
0.0003536266667 -0.00900402 -1 -0.0233933
-0.00062645 -0.00737246 -1 -0.0284546
-0.002440476667 -0.01080279667 -1 -0.0180612
-0.00242757 -0.007621523333 -1 -0.0173021
-0.00326341 -0.00931715 -1 -0.0164232
-0.00062456 -0.01073873 -1 -0.0220522
-0.004851666667 -0.001367041667 -1 -0.0178631
-0.002887855333 0.000132795 -1 -0.0254912
-0.003153502 0.002211918333 -1 -0.0351949
-0.01172206667 -0.005270406667 -1 -0.0165568
-0.008717683333 -0.00735423 -1 -0.0252491
-0.009745343333 -0.005586706667 -1 -0.0157287
-0.00827595 -0.00389521 -1 -0.0276853
-0.005136056667 0.00488452 -1 -0.0140795
-0.005198543333 0.002852951667 -1 -0.0109764
-0.008501503333 -0.00193893 -1 -0.0218237
-0.0067685 -0.0005034116667 -1 -0.0486911
-0.00684973 0.001637458333 -1 -0.0187998
-0.0201527 -0.0008378133333 -1 -0.0368235
-0.02103766667 0.0006452366667 -1 -0.0187135
-0.01879823333 0.004025293333 -1 -0.0270854
-0.02053383333 0.002973973333 -1 -0.0287353
-0.01694366667 0.002885116667 -1 -0.021735
-0.01045813 -0.001265709333 -1 -0.0327672
-0.0122093 -0.002905689333 -1 -0.0308724
-0.01801696667 -0.003282936667 -1 -0.0358558
-0.01460493333 -1.568266667e-05 -1 -0.0214369
-0.0182706 -0.0009383466667 -1 -0.0133534
-0.016758 0.0006191166667 -1 -0.0308933
-0.01617736667 -0.00401014 -1 -0.025885
-0.01427793333 -0.002300349333 -1 -0.0308629
0.00531689 0.0195265 -1 -0.018787
0.0016994 0.0133476 -1 -0.0134178
1.231333333e-05 0.0144302 -1 -0.0174171
0.00759376 0.0165977 -1 -0.0350271
0.00359044 0.0143401 -1 -0.0178997
0.003608116667 0.01645466667 -1 -0.0272048
0.005423266667 0.01752133333 -1 -0.0345709
0.009174916667 0.0175885 -1 -0.0388442
0.006951133333 0.0204055 -1 -0.0214929
0.006017013333 0.02250693333 -1 -0.0588237
0.009375453333 0.02161723333 -1 -0.0267725
0.009813053333 0.02033233333 -1 -0.0309034
-0.004147476667 0.02093773333 -1 -0.0427101
0.0033031 0.02063323333 -1 -0.0272309
0.002109943333 0.02319 -1 -0.0362108
-0.001216793933 0.02311783333 -1 -0.0189698
-0.002165013333 0.02304723333 -1 -0.0375736
-0.0003137876667 0.02059146667 -1 -0.0308844
1.406566667e-05 0.0164327 -1 -0.0225493
0.001718829 0.01746466667 -1 -0.0334181
0.001520189 0.01963806667 -1 -0.0167989
-0.001710537667 0.01930336667 -1 -0.0250218
-0.003473516667 0.0196642 -1 -0.0191358
-0.001581324333 0.017318 -1 -0.0280634
0.0186613 0.01409076667 -1 -0.0302215
0.01797213333 0.0149675 -1 -0.0599277
0.014122 0.01726563333 -1 -0.0333572
0.01237703667 0.01633843333 -1 -0.0349701
0.01265513333 0.01953446667 -1 -0.0425552
0.01675866667 0.01492393333 -1 -0.0372663
0.0159405 0.0132312 -1 -0.0296722
0.01605803333 0.0165406 -1 -0.0453576
0.0115347 0.0190973 -1 -0.0555458
0.01545686667 0.01708663333 -1 -0.032203
0.01083443667 0.0174526 -1 -0.0471173
0.01369983333 0.01881696667 -1 -0.0272487
0.01113561333 0.003860196667 -1 -0.0200568
0.01221476667 0.002462292667 -1 -0.0203495
0.01397516667 0.002615789333 -1 -0.0229509
0.0177626 0.002704026667 -1 -0.0193362
0.005435856667 0.01322363333 -1 -0.021124
0.007624026667 0.01441456667 -1 -0.0241704
0.00957865 0.01319953333 -1 -0.0396216
0.00519824 0.01100212 -1 -0.0320486
0.009131983333 0.01076049 -1 -0.0352581
0.006939743333 0.00975401 -1 -0.0325225
0.01082733667 0.00937291 -1 -0.0339103
0.0130449 0.01022988667 -1 -0.0275192
0.01027651667 0.007121816667 -1 -0.0275963
0.01172448 0.00572748 -1 -0.0259447
0.001484606667 0.01125236667 -1 -0.0287577
0.00313803 0.01002335333 -1 -0.0261531
-0.00185089 0.01164496667 -1 -0.0559548
-0.00044071 0.0104217 -1 -0.0363071
-0.001948985333 0.003991143333 -1 -0.0381257
-0.00084906 0.00833136 -1 -0.0258375
-0.003285566667 0.00567432 -1 -0.0392611
-0.00281964 0.00760123 -1 -0.0321398
0.00070818 0.00692316 -1 -0.0255454
7.418133333e-05 0.004509853333 -1 -0.0272633
0.001806928 0.003023006667 -1 -0.028568
0.002769953333 0.007784486667 -1 -0.0348288
0.0139393 0.00633644 -1 -0.0247341
0.01511083333 0.004622653333 -1 -0.0293223
0.0147089 0.008587753333 -1 -0.0271454
0.0171156 0.004596413333 -1 -0.0194219
0.020235 0.005640163333 -1 -0.0379358
0.01853353333 0.006116566667 -1 -0.0156332
0.0169735 0.0094678 -1 -0.0383326
0.01859726667 0.008230886667 -1 -0.0275714
0.0188734 0.01254143333 -1 -0.0661989
0.02166263333 0.00810798 -1 -0.0458997
0.02049576667 0.01107403333 -1 -0.0199074
0.02049373333 0.00904946 -1 -0.0365671
0.01736606667 0.01172543333 -1 -0.0339573
0.02200646667 0.00712847 -1 -0.0545348
-0.004384243333 0.009150303333 -1 -0.0218427
-0.003823843333 0.0111037 -1 -0.0264263
-0.003324166667 0.01635176667 -1 -0.0239526
-0.00668175 0.01794023333 -1 -0.0308821
-0.004580703333 0.01771476667 -1 -0.0239219
-0.00335375 0.0145945 -1 -0.0276289
-0.004822013333 0.0130529 -1 -0.026876
-0.006840893333 0.0133211 -1 -0.0293244
-0.01038063 0.01588596667 -1 -0.0257091
-0.01135782333 0.01335393333 -1 -0.0248149
-0.007929383333 0.0159605 -1 -0.0263799
-0.01141897333 0.01752526667 -1 -0.0254549
-0.0162952 0.01683946667 -1 -0.03977
-0.01525533333 0.01697493333 -1 -0.02823
-0.01246923333 0.019786 -1 -0.0535094
-0.01072749667 0.001121180667 -1 -0.0242082
-0.0088521 0.00258883 -1 -0.0203413
-0.01280566667 0.001765867333 -1 -0.026658
-0.0152265 0.00424537 -1 -0.0191207
-0.01324156667 0.00376092 -1 -0.028274
-0.008201263333 0.0114885 -1 -0.0405474
-0.01026694667 0.01159586667 -1 -0.0202294
-0.006639943333 0.00595886 -1 -0.0327349
-0.0087048 0.004878663333 -1 -0.0168792
-0.007905136667 0.009339396667 -1 -0.0345049
-0.006354056667 0.008297733333 -1 -0.029969
-0.01211686667 0.005560986667 -1 -0.0274097
-0.01107159 0.009601683333 -1 -0.0212474
-0.009745686667 0.00827008 -1 -0.0172108
-0.01025946333 0.00614822 -1 -0.0247125
-0.01337553333 0.00709002 -1 -0.0340216
-0.01284403333 0.009008856667 -1 -0.0301815
-0.0142722 0.01046670667 -1 -0.0287067
-0.0151622 0.00626686 -1 -0.0412563
-0.01643266667 0.009325663333 -1 -0.0247707
-0.01871003333 0.00616334 -1 -0.0202891
-0.01679116667 0.007044653333 -1 -0.0365766
-0.0179603 0.01030389 -1 -0.0383256
-0.016343 0.0137329 -1 -0.0362166
-0.01884316667 0.01269446667 -1 -0.0355269
0.008638666667 0.01939113333 -1 -0.0299742
0.01104956667 0.0201744 -1 -0.0333087
0.02091826667 0.01019064 -1 -0.0302802
0.0199548 0.01198576667 -1 -0.0456337
-0.005921903333 0.02270116667 -1 -0.0602553
-0.00731551 0.0198184 -1 -0.0273266
-0.005888423333 0.02086646667 -1 -0.0326838
-0.006416953333 0.02200506667 -1 -0.0523808
-0.01114254 0.019377 -1 -0.0287206
-0.009742493333 0.0208073 -1 -0.0417214
-0.01056560667 0.02039946667 -1 -0.0363127
-0.01415643333 0.01613176667 -1 -0.0260621
-0.01691153333 0.01622546667 -1 -0.038407
-0.0131311 0.01862283333 -1 -0.0297996
-0.00745474 0.02223253333 -1 -0.0552784
-0.008647073333 0.02067636667 -1 -0.0341692
-0.008257773333 0.0219519 -1 -0.0517124
-0.02062966667 0.01020365667 -1 -0.0412672
-0.0200076 0.01218186667 -1 -0.0353908
-0.0200558 0.007462906667 -1 -0.0187439
-0.02198623333 0.00693933 -1 -0.0272561
-0.01966456667 0.009322446667 -1 -0.0264865
-0.02188006667 0.008824603333 -1 -0.0390234
-0.02056316667 0.01119113333 -1 -0.042425
-0.02158 0.009515293333 -1 -0.0443069
-0.01425923333 -0.01773866667 -1 -0.00472013
-0.01084256333 -0.0199438 -1 -0.0237371
-0.004504563333 -0.02284223333 -1 -0.0233091
-0.003580836667 -0.02301086667 -1 -0.0210993
-0.007605313333 -0.02198253333 -1 -0.0138124
-0.00777254 -0.01843606667 -1 -0.00672505
-0.01920386667 -0.007800873333 -1 -0.0446676
-0.020356 -0.006087533333 -1 -0.0297225
-0.02189976667 -0.006600163333 -1 -0.030986
-0.01727063333 -0.0142765 -1 -0.0185367
-0.01835243333 -0.0119934 -1 -0.0104759
-0.02044916667 -0.00913407 -1 -0.0337309
-0.01705166667 -0.01602383333 -1 -0.0381398
-0.017595 -0.01541143333 -1 -0.0260721
-0.01845103333 -0.013708 -1 -0.0135746
-0.02183756667 -0.008597846667 -1 -0.0433348
-0.0197076 -0.01174066667 -1 -0.0187363
-0.0205738 -0.01017324333 -1 -0.0290279
0.0202657 -0.007015363333 -1 -0.0335888
0.02225806667 -0.00750208 -1 -0.0360585
0.02097763333 -0.005788566667 -1 -0.042975
0.0224772 -0.006806 -1 -0.0291661
0.02152273333 -0.008612823333 -1 -0.0353858
0.0179744 -0.01514813333 -1 -0.0185508
0.015886 -0.0170437 -1 -0.0263862
0.01867173333 -0.0142695 -1 -0.0253712
0.0197642 -0.01238133333 -1 -0.0249856
0.02129063333 -0.007822943333 -1 -0.0441324
0.0212074 -0.00933083 -1 -0.0288112
0.00593675 -0.0225258 -1 -0.0281718
0.00782603 -0.0221214 -1 -0.0248064
0.00776417 -0.019654 -1 -0.0159071
0.00639859 -0.02035163333 -1 -0.00841487
0.0066552 -0.021777 -1 -0.025608
0.01046142667 -0.020145 -1 -0.00730217
0.00887399 -0.02078086667 -1 -0.00999824
0.00867924 -0.0218229 -1 -0.0305787
0.01134866667 -0.0206751 -1 -0.0102778
0.009857876667 -0.02092216667 -1 -0.00475361
0.0151818 -0.01765643333 -1 -0.0157845
0.01389803333 -0.0171847 -1 -0.0250915
0.01228413333 -0.02011256667 -1 -0.0284257
-0.02019516667 -0.01092203333 -1 -0.0255924
-0.02213603333 -0.00777728 -1 -0.0415642
-0.01497173333 0.01797233333 -1 -0.0520591
-0.01862206667 0.01398463333 -1 -0.0315014
-0.0170089 0.01507653333 -1 -0.0401308
0.008200073333 0.00623519 -1 -0.0354974
0.004120046667 0.004140873333 -1 -0.0243466
0.00788747 0.004082843333 -1 -0.0284234
0.006558653333 0.007479803333 -1 -0.0277346
0.005917023333 0.002979283333 -1 -0.0307179
0.004449073333 0.006489046667 -1 -0.0369603
-0.006732176667 -0.006615256667 -1 -0.032952
-0.00327542 -0.00452604 -1 -0.0197541
-0.006591576667 -0.00456366 -1 -0.021934
-0.005382936667 -0.00740906 -1 -0.0398686
-0.004900296667 -0.00347101 -1 -0.0342594
-0.00361746 -0.006412493333 -1 -0.0251207
0.005701736667 -0.007911023333 -1 -0.017858
0.004233586667 -0.003335666667 -1 -0.022956
0.003540416667 -0.0074422 -1 -0.0316509
0.007312796667 -0.00626951 -1 -0.0236796
0.00266397 -0.00520083 -1 -0.0297041
0.006721093333 -0.003935523333 -1 -0.0242423
-0.0127676 -0.0193479 -1 -0.0330092
-0.005154636667 -0.0163697 -1 -0.0214663
-0.00481788 -0.02012976667 -1 -0.0119683
-0.00653798 -0.0223109 -1 -0.0165044
0.02274326667 0.005407036667 -1 -0.0590813
0.02160833333 0.006365513333 -1 -0.0437308
-0.02132096667 0.007653426667 -1 -0.0136706
-0.02225303333 0.006048843333 -1 -0.0417967
-0.0228329 -0.00522625 -1 -0.0408525
0.0222217 -0.005900066667 -1 -0.0294989
0.02340346667 -0.002533313333 -1 -0.0219759
0.02289816667 -0.00527143 -1 -0.031352
0.02308203333 -0.004421353333 -1 -0.030107
0.002432583333 -0.02320233333 -1 -0.00340361
0.004961756667 -0.02245153333 -1 -0.01382
0.00479776 -0.0231832 -1 -0.0195429
0.008577656667 0.02196236667 -1 -0.0683471
0.00700894 0.02178773333 -1 -0.0577709
-0.01406863333 0.01867456667 -1 -0.0371053
-0.0129353 0.01707743333 -1 -0.0199543
0.004265856667 -0.0232942 -1 -0.0280653
0.003902943333 -0.02197026667 -1 -0.0271619
-0.01002782667 -0.02038196667 -1 -0.0218234
-0.017921 0.01487853333 -1 -0.0658442
-0.0174762 0.01224473333 -1 -0.0550204
0.003964803114 -0.02639011143 -1 -0.0113039
-0.004069797398 -0.02631451343 -1 -0.015216
-0.005587385332 -0.02603773466 -1 -0.0136587
0.02345098314 -0.01260386162 -1 -0.0426086
0.02515243023 -0.008677880586 -1 -0.0448774
-0.02527551201 0.008482418524 -1 -0.0428483
-0.0262196907 -0.00473641603 -1 -0.0482223
-0.02644748794 -0.00319070719 -1 -0.0714817
-0.02595199449 -0.006095163473 -1 -0.0402697
-0.02635620825 0.003611698982 -1 -0.0431486
-0.0260436287 0.005564332273 -1 -0.0464698
0.009800471483 0.02484759365 -1 -0.0428735
0.008871268646 0.02509499433 -1 -0.0402154
0.02638125415 0.003716231986 -1 -0.0300171
0.02659630511 0.001463067807 -1 -0.0472312
0.02616526182 -0.004736809547 -1 -0.0330897
0.02641283363 -0.003320164571 -1 -0.0401029
0.02597343644 -0.006198002457 -1 -0.0428196
-0.02026868169 0.01727993241 -1 -0.0581411
-0.01933532307 0.01834182102 -1 -0.0488318
-0.01830375418 0.01936733349 -1 -0.0492484
-0.01724079762 0.02035917358 -1 -0.0568998
-0.01740141346 -0.02021762268 -1 -0.0201618
-0.01840447888 -0.0193042407 -1 -0.0209013
-0.01930090847 -0.01838506068 -1 -0.0233685
-0.02021488479 -0.01735760906 -1 -0.0366811
0.01928839035 -0.01839715604 -1 -0.0257802
0.018328002 -0.01935309696 -1 -0.0196183
0.01572213978 -0.02153147549 -1 -0.0248325
0.01714160576 -0.02037408147 -1 -0.0293785
0.02021138367 -0.01734073951 -1 -0.0289172
0.02131756796 -0.01590485606 -1 -0.0270094
0.02247819507 -0.01432112142 -1 -0.0400676
-0.02141596234 -0.01576115213 -1 -0.0289103
-0.01596333157 -0.02132117676 -1 -0.0182569
-0.02267587214 -0.0140474666 -1 -0.032337
-0.02137500036 0.01581968089 -1 -0.0470769
-0.02261103392 0.01415753548 -1 -0.0576878
-0.01570893067 0.02142628128 -1 -0.0445431
-0.01401012174 0.0226993843 -1 -0.0483413
0.02022738907 0.01735949223 -1 -0.0541605
0.02134907127 0.01587728372 -1 -0.0400254
0.02259163897 0.01410799648 -1 -0.0410293
0.0160090021 0.0212168635 -1 -0.0463523
0.01741830906 0.02016917809 -1 -0.0539779
0.01435078748 0.02243196803 -1 -0.0475302
0.0249197318 0.009352550402 -1 -0.0701917
0.02553798605 -0.007558888075 -1 -0.0455434
0.02657832144 -0.001795668059 -1 -0.0523414
0.02666568295 -0.0003284361344 -1 -0.0581308
0.02547608833 0.007744744329 -1 -0.0618114
0.02595156667 0.005954227552 -1 -0.0566218
0.01845812701 0.01925414667 -1 -0.0438878
0.01934984107 0.01835674726 -1 -0.0407981
0.007200406802 0.02561054072 -1 -0.0529084
0.005047099085 0.02609764807 -1 -0.053984
0.002993496111 0.02644232312 -1 -0.0522416
0.02348652567 0.01259983277 -1 -0.0608849
-0.002595189228 0.02656125316 -1 -0.0595096
-0.004084133173 0.02630373031 -1 -0.0557219
-0.005682664736 0.02605324143 -1 -0.0664567
-0.0085748103 0.02525063857 -1 -0.056327
-0.007237934939 0.0256140429 -1 -0.0573249
-0.02569451464 0.006958246063 -1 -0.0493719
-0.02514777966 -0.008802397821 -1 -0.0426128
-0.02556401082 -0.007495630997 -1 -0.0498604
-0.007114195257 -0.02566663695 -1 -0.0135898
-0.008819456772 -0.02508938363 -1 -0.0139253
-0.0009947787293 -0.02665323261 -1 -0.0174647
0.0009708377723 -0.02664953435 -1 -0.0143006
0.00579409444 -0.02608334672 -1 -0.00761922
0.007146929583 -0.02563999647 -1 -0.0110134
0.008853051948 -0.02511286213 -1 -0.0136951
0.01408650223 -0.0225783804 -1 -0.0163548
0.01257100227 -0.02350854145 -1 -0.0251679
-0.01434808751 -0.02243833259 -1 -0.0203328
-0.01290354951 -0.02327858019 -1 -0.0227282
0.004853615537 -0.02617376116 -1 -0.00982165
-0.002580675005 -0.02649789847 -1 -0.0177655
-0.02348365743 -0.01264383535 -1 -0.045303
-0.02353354405 0.01243272486 -1 -0.0728648
-0.01243733264 0.02356992896 -1 -0.0685148
0.01271129809 0.02341524062 -1 -0.0686494
0.0009208217003 0.02668736542 -1 -0.0592453
-0.0009322715882 0.02665822304 -1 -0.0609443
-0.02664409789 0.001241258519 -1 -0.05793
-0.02661325714 -0.001074743236 -1 -0.0623341
0.01101342104 0.0241650689 -1 -0.0617661
0.02426432093 0.0110998252 -1 -0.0646329
-0.009842084536 0.02470935085 -1 -0.0481745
-0.01110074914 0.02421489192 -1 -0.0620563
-0.02438041523 0.01082068409 -1 -0.0484311
-0.02461028342 -0.0100872063 -1 -0.0385963
-0.02412717026 -0.01139105297 -1 -0.043183
0.02428681803 -0.01091006081 -1 -0.0200566
0.02480955551 -0.009716136429 -1 -0.0387954
0.01131429131 -0.02414312429 -1 -0.0205885
0.01023261164 -0.02460163277 -1 -0.0139592
-0.01037306692 -0.02457419942 -1 -0.0212284
-0.01157551459 -0.02402133207 -1 -0.0218962
-0.02470498609 0.009634382738 -1 -0.0408581
0.002758032806 -0.02651083612 -1 -0.00807249
0.004760318503 -0.03097056805 -1 -0.00316956
-0.004987896161 -0.03095082934 -1 -0.00520604
-0.006755276255 -0.030596909 -1 -0.00139516
0.02764425078 -0.01473791691 -1 -0.028264
0.02962337553 -0.01017978921 -1 -0.0303043
-0.02966328035 0.01009144727 -1 -0.0275888
-0.03084653108 -0.005617333344 -1 -0.0368877
-0.03110847546 -0.003783365558 -1 -0.0508482
-0.03050149227 -0.007257262754 -1 -0.0318645
-0.03100175463 0.004321504531 -1 -0.0331994
-0.03066047329 0.006578143507 -1 -0.0364269
0.01172750264 0.02908896105 -1 -0.0318141
0.01061985347 0.02948050214 -1 -0.0291593
0.03104867448 0.004350981198 -1 -0.0239033
0.03129423264 0.001694180248 -1 -0.0368962
0.03086048905 -0.005448402925 -1 -0.0234447
0.03110552183 -0.003838973017 -1 -0.0305641
0.03051628165 -0.00719039764 -1 -0.0284215
-0.0238699175 0.02033469333 -1 -0.0412173
-0.02272774159 0.02159166501 -1 -0.03658
-0.02150362325 0.02280163094 -1 -0.0332264
-0.02018058419 0.02398421719 -1 -0.0384773
-0.02043176934 -0.02377263905 -1 -0.0138082
-0.02166942708 -0.02266135245 -1 -0.0124851
-0.02276548765 -0.02156221511 -1 -0.0136096
-0.02384815037 -0.02032700511 -1 -0.0208519
0.02268644716 -0.02162754441 -1 -0.0153804
0.02154575395 -0.02276821358 -1 -0.00614208
0.0183798341 -0.0253449385 -1 -0.00892052
0.02013310182 -0.02401484486 -1 -0.00987759
0.02382551902 -0.02038792184 -1 -0.0152005
0.02515157995 -0.01869928901 -1 -0.0180556
0.02642113128 -0.01679082355 -1 -0.0239392
-0.02524426509 -0.01851648872 -1 -0.0200992
-0.01871176739 -0.02513030871 -1 -0.00909926
-0.02664795704 -0.01650248275 -1 -0.0235031
-0.02511759736 0.01867334913 -1 -0.0369228
-0.02648875422 0.01671558285 -1 -0.03811
-0.01845391244 0.02529330974 -1 -0.0346498
-0.01646438297 0.02664163988 -1 -0.0357319
0.02387315777 0.0203366343 -1 -0.0406389
0.0251955093 0.01858159568 -1 -0.0349174
0.02660732848 0.01654208011 -1 -0.0363652
0.01882188866 0.02507281415 -1 -0.0410572
0.02039116202 0.02377403513 -1 -0.0432048
0.01684411157 0.02636626155 -1 -0.038936
0.02938312794 0.01088263486 -1 -0.0599322
0.03004419333 -0.008898078392 -1 -0.0322311
0.03125175896 -0.00208312431 -1 -0.041095
0.03132509101 -0.0003879252352 -1 -0.0455348
0.02999684262 0.009010697931 -1 -0.0483796
0.03053308778 0.006970881809 -1 -0.0432949
0.02164559964 0.02269076865 -1 -0.0390318
0.02276195903 0.02157988897 -1 -0.0340172
0.008590347538 0.03007800077 -1 -0.0418505
0.006055093768 0.03072254113 -1 -0.0461062
0.0036578921 0.03111656775 -1 -0.0450805
0.02765730999 0.01478210096 -1 -0.0518595
-0.00321703715 0.03113021318 -1 -0.0482669
-0.004932629202 0.03092755772 -1 -0.0449201
-0.006849073427 0.0306018551 -1 -0.0467019
-0.01033422231 0.02961692762 -1 -0.0397559
-0.008743731126 0.03008244266 -1 -0.0409393
-0.03023482079 0.008254387026 -1 -0.0371893
-0.02954329043 -0.01043673691 -1 -0.0313526
-0.03002566575 -0.008921946112 -1 -0.0362241
-0.00856652249 -0.0301545327 -1 -0.00692281
-0.01046804252 -0.02949284533 -1 -0.00387683
-0.00131442531 -0.03132136502 -1 -0.00416475
0.001128845425 -0.03133043399 -1 -0.00279586
0.006884132163 -0.03058943808 -1 -0.00172305
0.008546285284 -0.03013716348 -1 -0.00237754
0.01046984594 -0.02950075932 -1 -0.00520194
0.01652816068 -0.02660204 -1 -0.00675132
0.01480154995 -0.02764118199 -1 -0.012848
-0.01678415533 -0.02645095388 -1 -0.00830248
-0.0151039799 -0.02746229516 -1 -0.0107362
0.005782714894 -0.0307837008 -1 -0.00393448
-0.003232896173 -0.03117401701 -1 -0.00547234
-0.02764000221 -0.01483381945 -1 -0.0319865
-0.02760707253 0.01470452187 -1 -0.048906
-0.01466779282 0.02771247669 -1 -0.0534139
0.0149630068 0.027485124 -1 -0.0546441
0.00107926563 0.03133823292 -1 -0.0488999
-0.001250689762 0.03132310429 -1 -0.0520722
-0.03129418215 0.001491839678 -1 -0.0403565
-0.03128519004 -0.001312000934 -1 -0.0484184
0.01314207488 0.02841629388 -1 -0.0461338
0.0285209212 0.01294399806 -1 -0.0530413
-0.01179296731 0.02901283581 -1 -0.0347933
-0.01315419601 0.0284760293 -1 -0.0445549
-0.02862585333 0.01279284598 -1 -0.0338029
-0.02900052467 -0.01189518411 -1 -0.0276509
-0.02839021512 -0.01333902307 -1 -0.0314541
0.02863402436 -0.0126848679 -1 -0.0146165
0.02919103497 -0.01131083461 -1 -0.0308458
0.0133446171 -0.02839912481 -1 -0.0072595
0.01207543835 -0.02899050914 -1 -0.00387593
-0.01213076242 -0.02889832504 -1 -0.00831202
-0.0135314094 -0.02828423933 -1 -0.00963131
-0.0291505992 0.01145599712 -1 -0.0279266
0.003328299931 -0.03117780851 -1 -0.00198475
0.005446080987 -0.03484744009 -1 0.0021282
-0.005775044779 -0.03477021661 -1 0.00506839
-0.007762766108 -0.03440668363 -1 0.00767372
0.03111835057 -0.01647640954 -1 -0.0154347
0.03340074044 -0.01139516858 -1 -0.0196712
-0.03332675397 0.01147008977 -1 -0.0199843
-0.03471177795 -0.006253631417 -1 -0.0283877
-0.03501186732 -0.004161852763 -1 -0.0384438
-0.03430875684 -0.008155689242 -1 -0.024254
-0.0348999177 0.004865029099 -1 -0.0237474
-0.03448686638 0.007398171595 -1 -0.0259288
0.01324962507 0.0326598642 -1 -0.0221282
0.01202562297 0.03314042455 -1 -0.0210089
0.0349253126 0.00484911449 -1 -0.0183363
0.03520342522 0.001877753837 -1 -0.0262497
0.03474411875 -0.006086822938 -1 -0.0112895
0.03499311586 -0.004278604842 -1 -0.0206843
0.03430279765 -0.007993704171 -1 -0.0178963
-0.02687397618 0.02283630734 -1 -0.0311313
-0.02556593355 0.02427889709 -1 -0.0287406
-0.02421469945 0.02563076384 -1 -0.0248564
-0.02270528608 0.02696173587 -1 -0.0295641
-0.02295848295 -0.02676350374 -1 -0.00531458
-0.02436884847 -0.02549326541 -1 -0.00650876
-0.02560887028 -0.02424758146 -1 -0.00826836
-0.02688620487 -0.02283771562 -1 -0.0133073
0.02551444865 -0.02434349491 -1 -0.0101425
0.02423752885 -0.02561977926 -1 0.000969504
0.0206575236 -0.02858171385 -1 -0.00343703
0.02262108904 -0.02700918126 -1 -0.0042021
0.02674940008 -0.02293417046 -1 -0.0054691
0.02829311088 -0.02103349248 -1 -0.00883747
0.02979189617 -0.01886510748 -1 -0.0124382
-0.02846784258 -0.02077666893 -1 -0.0156955
-0.02099943386 -0.02830865364 -1 -0.00160597
-0.03000250386 -0.01852137528 -1 -0.0179115
-0.02833259584 0.02098257028 -1 -0.0296318
-0.02979086994 0.01879697082 -1 -0.0279708
-0.0207521154 0.02850060345 -1 -0.0302032
-0.01853029861 0.02999113022 -1 -0.0291805
0.02686064666 0.02281809962 -1 -0.0318474
0.02841708093 0.02087212065 -1 -0.0292671
0.02999187951 0.01855080344 -1 -0.0298385
0.021090449 0.02826052229 -1 -0.0296832
0.02291766705 0.02679032685 -1 -0.0308819
0.01887022414 0.02975264682 -1 -0.0286885
0.03309298325 0.0121050817 -1 -0.04354
0.03384625203 -0.009903759303 -1 -0.0214438
0.03519192358 -0.002322944025 -1 -0.0273849
0.03527541025 -0.000423416702 -1 -0.0330345
0.03376546199 0.01007142604 -1 -0.0348064
0.03438390167 0.007836407691 -1 -0.0317526
0.02430858141 0.02555588604 -1 -0.0306141
0.0256007494 0.02427103192 -1 -0.0242678
0.009714138892 0.03383283832 -1 -0.0292949
0.006827754167 0.03456293564 -1 -0.0361232
0.004135250145 0.03497898441 -1 -0.033372
0.03114933424 0.01654558948 -1 -0.0382255
-0.003685928263 0.03504953304 -1 -0.0372696
-0.005535806142 0.03483707342 -1 -0.0349625
-0.007755677241 0.03440117341 -1 -0.0357826
-0.01172692283 0.03324642363 -1 -0.0295128
-0.009957392949 0.03382130484 -1 -0.0309949
-0.03398535802 0.009365080599 -1 -0.0263581
-0.033247529 -0.0117745048 -1 -0.0228689
-0.03379530524 -0.01007072945 -1 -0.0270241
-0.009822339061 -0.0338596633 -1 -0.00307706
-0.0119019369 -0.03317800508 -1 0.00130256
-0.001573487188 -0.03522900661 -1 0.00825562
0.00126775221 -0.03523864139 -1 0.00708113
0.007776676044 -0.03439568375 -1 0.00101033
0.009669172761 -0.03389755094 -1 0.00274105
0.01180017222 -0.0332286646 -1 -0.00172743
0.01856053586 -0.02998054543 -1 -4.02048e-05
0.01665184017 -0.03109778898 -1 -0.0061078
-0.01882341544 -0.02979921446 -1 -0.00141407
-0.01693055357 -0.0309158664 -1 -0.0036354
0.006560826347 -0.03467064158 -1 -0.00345727
-0.003792497194 -0.03505364856 -1 0.00480403
-0.03111126671 -0.01664670599 -1 -0.0227626
-0.03104945222 0.01664575419 -1 -0.0348813
-0.01656134383 0.03115014383 -1 -0.0426303
0.01686010139 0.0309351604 -1 -0.0395987
0.00119073657 0.03523485252 -1 -0.0361018
-0.001519954127 0.03523678621 -1 -0.0388791
-0.03517881137 0.001739060351 -1 -0.0267956
-0.03522804033 -0.001389474729 -1 -0.0349709
0.01486841905 0.03197431304 -1 -0.0331252
0.03217115053 0.01445764211 -1 -0.0381796
-0.01338460752 0.03265927398 -1 -0.0257996
-0.01486729912 0.0320144244 -1 -0.0364683
-0.03213113431 0.01448669561 -1 -0.0268608