# p  FACE_DATA 1436
# x  y  z  p
-0.01592896667 -0.01653226667 -1 1752.076678
0.01657313333 0.0160208 -1 1749.777324
-0.01359063333 0.0128176 -1 1758.935362
-0.01482033333 0.01432873333 -1 1750.143217
0.01211303667 0.01419776667 -1 1753.922016
0.01388393333 0.0126157 -1 1767.573149
0.001551908 0.00029166 -1 1784.092311
-0.0007156886667 -0.00105012 -1 1755.573978
-0.008560706667 -0.0216334 -1 1760.857973
0.003726083333 -0.02337806667 -1 1748.594706
-0.001686294667 -0.02345993333 -1 1752.170044
-0.02261056667 -0.006060163333 -1 1754.88204
-0.02299816667 -0.004418926667 -1 1751.188347
-0.02246676667 0.005203306667 -1 1748.254824
-0.02320146667 0.00279448 -1 1762.995461
-0.00498936 0.0229274 -1 1753.166941
-0.003743463333 0.02230256667 -1 1756.936374
0.004729936667 0.02282936667 -1 1750.224928
-0.0003052272667 0.02244516667 -1 1752.539576
0.0008993827333 0.0232875 -1 1751.079953
0.0033239 0.02235963333 -1 1746.928882
0.00805101 0.02213043333 -1 1750.946216
-0.003047013333 0.02294196667 -1 1757.158372
0.02315596667 0.001468849 -1 1757.278799
-0.006040296667 -0.01846966667 -1 1767.234092
-0.008658103333 -0.02018026667 -1 1762.94795
-0.01128343 -0.01875673333 -1 1763.905488
-0.01064229667 -0.0168819 -1 1739.13074
-0.008939163333 -0.016511 -1 1758.748102
-0.002640472 -0.0196662 -1 1755.554445
-0.001521776667 -0.02118863333 -1 1745.938693
-0.0007416493667 -0.0235195 -1 1759.056542
-0.002363281333 -0.02268506667 -1 1753.008568
-0.005385393333 -0.02187766667 -1 1755.300884
-0.01372963333 -0.01867993333 -1 1754.95184
-0.01551826667 -0.01773573333 -1 1752.111788
-0.01233753333 -0.01583263333 -1 1763.309479
-0.01393723333 -0.01649033333 -1 1754.458297
-0.0165166 -0.016559 -1 1753.527379
-0.01530713333 -0.01555403333 -1 1756.27898
-0.01255346667 -0.01380173333 -1 1785.715847
-0.01466716667 -0.0130684 -1 1752.399368
-0.01582113333 -0.014163 -1 1748.532554
-0.006241333333 -0.01460193333 -1 1781.058808
-0.008293616667 -0.01477683333 -1 1771.287372
-0.01107326 -0.01256973333 -1 1752.035719
-0.008040483333 -0.01088154 -1 1742.604136
-0.009153743333 -0.01293456667 -1 1767.580917
-0.01489666667 -0.01103637333 -1 1749.780896
-0.01666883333 -0.01048500667 -1 1758.171651
-0.009315633333 -0.00919478 -1 1758.523354
-0.01128879333 -0.01015660667 -1 1748.359155
-0.0129985 -0.00935658 -1 1773.05576
-0.01331833333 -0.007017463333 -1 1783.632023
-0.01715733333 -0.008150286667 -1 1754.991384
-0.015705 -0.006362536667 -1 1759.502196
-0.02332943333 0.001398023333 -1 1760.209671
-0.02321333333 -0.002317283333 -1 1752.128134
-0.0233015 -0.001052146667 -1 1758.488447
-0.022495 -0.00328184 -1 1752.941909
-0.02207146667 0.003993153333 -1 1745.939846
-0.02270326667 0.00026796 -1 1764.717328
-0.02108106667 -0.00289455 -1 1749.034097
-0.01981813333 -0.00435292 -1 1771.883427
0.01496203333 -0.002770838667 -1 1797.529022
0.01880986667 -0.00754393 -1 1782.281421
0.01756106667 -0.006321716667 -1 1792.301815
0.01862416667 -0.009368483333 -1 1764.514684
0.02011306667 -0.01006252333 -1 1758.312961
0.0168075 -0.01083792667 -1 1766.043593
0.0203416 -0.01137893333 -1 1771.11617
0.02301863333 0.002832003333 -1 1776.72686
0.02222336667 0.003871473333 -1 1771.59247
0.01717916667 -0.002487185333 -1 1764.044805
0.01834126667 -0.004197446667 -1 1744.077873
0.01978043333 0.0002927566667 -1 1759.288671
0.01789906667 -0.000560062 -1 1776.954513
0.02349526667 -0.001601916 -1 1750.57429
0.02120653333 -0.0006361033333 -1 1747.602841
0.02273233333 0.0001634756667 -1 1754.671192
0.0235328 -0.0007296303333 -1 1753.128558
0.022801 -0.003308676667 -1 1751.937699
0.020302 -0.004192863333 -1 1777.038411
0.02137396667 -0.00275453 -1 1750.958551
0.01875806667 -0.01301643333 -1 1747.58967
0.01698396667 -0.01274003333 -1 1764.074746
0.01668933333 -0.01551156667 -1 1749.809635
0.01561256667 -0.01435653333 -1 1747.037092
0.01645603333 -0.01647973333 -1 1749.741283
0.01379646667 -0.01512173333 -1 1750.524975
0.01095759333 -0.01844986667 -1 1747.981224
0.0123613 -0.01864116667 -1 1752.636457
0.0134755 -0.0183751 -1 1753.087972
0.0152862 -0.006901776667 -1 1751.037535
0.01384926667 -0.00506116 -1 1771.317805
0.01471833333 -0.009593433333 -1 1751.417125
0.0123352 -0.01378586667 -1 1755.891407
0.01028757 -0.00951642 -1 1780.513825
0.01247926667 -0.01086707333 -1 1772.548526
0.00986414 -0.01715226667 -1 1759.242082
0.01022911333 -0.0148173 -1 1775.018965
0.00821159 -0.01105531333 -1 1749.415313
0.0082972 -0.0134374 -1 1752.769045
0.006265606667 -0.01450466667 -1 1771.589552
0.004687583333 -0.01335726667 -1 1747.36355
0.00624855 -0.01661663333 -1 1761.207691
0.00791517 -0.01788433333 -1 1750.576207
0.00457589 -0.0176349 -1 1751.980113
0.001719268 -0.02001463333 -1 1752.312648
0.0004626566667 -0.02127856667 -1 1765.706749
0.001390178633 -0.0232679 -1 1744.778871
0.003199173333 -0.0227858 -1 1755.684625
0.0005657973 -0.02283456667 -1 1749.274245
0.00487693 -0.01960023333 -1 1735.039865
0.003568583333 -0.02068953333 -1 1766.403003
-0.001880585333 -0.0177058 -1 1744.621175
-0.003172333333 -0.0160694 -1 1758.244297
-0.002349483333 -0.01419343333 -1 1744.93651
-0.0005302333333 -0.01400073333 -1 1765.089955
0.002967696667 -0.0138721 -1 1759.688163
0.00291957 -0.0169554 -1 1750.297435
0.0004186466667 -0.01538533333 -1 1747.024649
0.001371294667 -0.01824583333 -1 1749.34566
-0.0001088553333 -0.01721443333 -1 1750.436561
0.002269483333 -0.0152879 -1 1746.710015
-0.00161266 0.01355823333 -1 1751.876081
0.02069983333 0.00378931 -1 1751.2472
0.01964536667 0.002373326667 -1 1754.374043
0.01145931 -0.00502932 -1 1746.52017
0.009841946667 -0.006939323333 -1 1767.243221
0.01389926667 -0.0009581926667 -1 1765.128854
0.014952 0.0009265173333 -1 1745.616101
0.01673466667 0.001040994667 -1 1752.143333
0.0004044566667 -0.005242376667 -1 1749.968863
-0.001054623333 -0.003604986667 -1 1768.372414
0.004662493333 -0.01135441667 -1 1743.12379
0.006154906667 -0.01011973 -1 1774.539325
0.00226098 -0.009115306667 -1 1747.864088
0.002929886667 -0.01081881667 -1 1761.700212
0.00028711 -0.0123142 -1 1754.736463
0.001934203333 -0.012283 -1 1770.994171
0.01187578667 -0.0009089336667 -1 1742.729493
0.01054859667 -0.002689739667 -1 1767.594878
0.01116812 0.0008222796667 -1 1764.768307
0.00940542 0.001211087 -1 1747.590207
0.009375046667 0.003102186667 -1 1758.785497
0.00790402 -9.6143e-05 -1 1752.137086
0.0059032 0.0006913966667 -1 1763.852412
0.003851203333 -0.00087836 -1 1791.883142
0.00833953 -0.002265756333 -1 1751.732283
-0.005257603333 -0.01267916667 -1 1747.06238
-0.006196626667 -0.01080104 -1 1748.63318
-0.003348056667 -0.01257096667 -1 1761.431558
-0.005110013333 -0.009207193333 -1 1743.329011
0.0003536266667 -0.00900402 -1 1751.327459
-0.00062645 -0.00737246 -1 1752.84204
-0.002440476667 -0.01080279667 -1 1744.990488
-0.00242757 -0.007621523333 -1 1739.924719
-0.00326341 -0.00931715 -1 1756.408487
-0.00062456 -0.01073873 -1 1766.106635
-0.004851666667 -0.001367041667 -1 1752.865584
-0.002887855333 0.000132795 -1 1781.545526
-0.003153502 0.002211918333 -1 1760.329495
-0.01172206667 -0.005270406667 -1 1741.540049
-0.008717683333 -0.00735423 -1 1749.675013
-0.009745343333 -0.005586706667 -1 1763.784556
-0.00827595 -0.00389521 -1 1765.094404
-0.005136056667 0.00488452 -1 1742.90604
-0.005198543333 0.002852951667 -1 1753.753313
-0.008501503333 -0.00193893 -1 1747.938621
-0.0067685 -0.0005034116667 -1 1759.480233
-0.00684973 0.001637458333 -1 1796.886374
-0.0201527 -0.0008378133333 -1 1760.460617
-0.02103766667 0.0006452366667 -1 1786.698907
-0.01879823333 0.004025293333 -1 1747.051241
-0.02053383333 0.002973973333 -1 1743.550512
-0.01694366667 0.002885116667 -1 1775.268082
-0.01045813 -0.001265709333 -1 1747.527906
-0.0122093 -0.002905689333 -1 1753.261919
-0.01801696667 -0.003282936667 -1 1749.68042
-0.01460493333 -1.568266667e-05 -1 1782.976028
-0.0182706 -0.0009383466667 -1 1752.186108
-0.016758 0.0006191166667 -1 1771.873545
-0.01617736667 -0.00401014 -1 1767.160535
-0.01427793333 -0.002300349333 -1 1751.340488
0.00531689 0.0195265 -1 1748.337078
0.0016994 0.0133476 -1 1746.870197
1.231333333e-05 0.0144302 -1 1759.253648
0.00759376 0.0165977 -1 1766.125844
0.00359044 0.0143401 -1 1785.151316
0.003608116667 0.01645466667 -1 1763.703649
0.005423266667 0.01752133333 -1 1751.904705
0.009174916667 0.0175885 -1 1771.579565
0.006951133333 0.0204055 -1 1762.133089
0.006017013333 0.02250693333 -1 1749.901841
0.009375453333 0.02161723333 -1 1750.775603
0.009813053333 0.02033233333 -1 1752.535261
-0.004147476667 0.02093773333 -1 1753.718775
0.0033031 0.02063323333 -1 1750.604004
0.002109943333 0.02319 -1 1751.917494
-0.001216793933 0.02311783333 -1 1752.088798
-0.002165013333 0.02304723333 -1 1761.120883
-0.0003137876667 0.02059146667 -1 1754.239682
1.406566667e-05 0.0164327 -1 1772.421133
0.001718829 0.01746466667 -1 1747.312712
0.001520189 0.01963806667 -1 1750.986744
-0.001710537667 0.01930336667 -1 1750.080738
-0.003473516667 0.0196642 -1 1756.066813
-0.001581324333 0.017318 -1 1744.288358
0.0186613 0.01409076667 -1 1756.251406
0.01797213333 0.0149675 -1 1749.999107
0.014122 0.01726563333 -1 1750.812972
0.01237703667 0.01633843333 -1 1756.883186
0.01265513333 0.01953446667 -1 1770.608331
0.01675866667 0.01492393333 -1 1750.08118
0.0159405 0.0132312 -1 1751.220446
0.01605803333 0.0165406 -1 1750.854334
0.0115347 0.0190973 -1 1759.633352
0.01545686667 0.01708663333 -1 1750.211301
0.01083443667 0.0174526 -1 1759.93975
0.01369983333 0.01881696667 -1 1771.435914
0.01113561333 0.003860196667 -1 1748.345895
0.01221476667 0.002462292667 -1 1745.771287
0.01397516667 0.002615789333 -1 1753.90751
0.0177626 0.002704026667 -1 1748.694921
0.005435856667 0.01322363333 -1 1751.875531
0.007624026667 0.01441456667 -1 1769.122195
0.00957865 0.01319953333 -1 1783.993467
0.00519824 0.01100212 -1 1750.29682
0.009131983333 0.01076049 -1 1768.938459
0.006939743333 0.00975401 -1 1774.815054
0.01082733667 0.00937291 -1 1758.727719
0.0130449 0.01022988667 -1 1798.861437
0.01027651667 0.007121816667 -1 1777.450039
0.01172448 0.00572748 -1 1745.033519
0.001484606667 0.01125236667 -1 1742.288052
0.00313803 0.01002335333 -1 1776.256795
-0.00185089 0.01164496667 -1 1759.294422
-0.00044071 0.0104217 -1 1753.957141
-0.001948985333 0.003991143333 -1 1749.745586
-0.00084906 0.00833136 -1 1747.228461
-0.003285566667 0.00567432 -1 1752.621327
-0.00281964 0.00760123 -1 1747.841681
0.00070818 0.00692316 -1 1785.306151
7.418133333e-05 0.004509853333 -1 1784.388084
0.001806928 0.003023006667 -1 1779.411564
0.002769953333 0.007784486667 -1 1749.833965
0.0139393 0.00633644 -1 1769.344736
0.01511083333 0.004622653333 -1 1740.193723
0.0147089 0.008587753333 -1 1743.072682
0.0171156 0.004596413333 -1 1766.463742
0.020235 0.005640163333 -1 1758.463817
0.01853353333 0.006116566667 -1 1799.001112
0.0169735 0.0094678 -1 1753.5462
0.01859726667 0.008230886667 -1 1751.818378
0.0188734 0.01254143333 -1 1756.624926
0.02166263333 0.00810798 -1 1762.580556
0.02049576667 0.01107403333 -1 1759.517257
0.02049373333 0.00904946 -1 1760.278914
0.01736606667 0.01172543333 -1 1757.095862
0.02200646667 0.00712847 -1 1754.159567
-0.004384243333 0.009150303333 -1 1788.455943
-0.003823843333 0.0111037 -1 1759.388065
-0.003324166667 0.01635176667 -1 1779.632065
-0.00668175 0.01794023333 -1 1754.530111
-0.004580703333 0.01771476667 -1 1751.094152
-0.00335375 0.0145945 -1 1754.15672
-0.004822013333 0.0130529 -1 1763.989529
-0.006840893333 0.0133211 -1 1773.604907
-0.01038063 0.01588596667 -1 1767.169041
-0.01135782333 0.01335393333 -1 1771.840876
-0.007929383333 0.0159605 -1 1771.472725
-0.01141897333 0.01752526667 -1 1755.52645
-0.0162952 0.01683946667 -1 1755.238788
-0.01525533333 0.01697493333 -1 1760.615138
-0.01246923333 0.019786 -1 1760.429077
-0.01072749667 0.001121180667 -1 1735.138807
-0.0088521 0.00258883 -1 1774.381808
-0.01280566667 0.001765867333 -1 1760.713027
-0.0152265 0.00424537 -1 1749.408933
-0.01324156667 0.00376092 -1 1753.34269
-0.008201263333 0.0114885 -1 1755.306797
-0.01026694667 0.01159586667 -1 1755.432683
-0.006639943333 0.00595886 -1 1787.473211
-0.0087048 0.004878663333 -1 1747.859552
-0.007905136667 0.009339396667 -1 1769.857348
-0.006354056667 0.008297733333 -1 1772.435986
-0.01211686667 0.005560986667 -1 1761.963173
-0.01107159 0.009601683333 -1 1774.646995
-0.009745686667 0.00827008 -1 1749.788266
-0.01025946333 0.00614822 -1 1793.525651
-0.01337553333 0.00709002 -1 1762.783592
-0.01284403333 0.009008856667 -1 1767.345964
-0.0142722 0.01046670667 -1 1752.659321
-0.0151622 0.00626686 -1 1752.071512
-0.01643266667 0.009325663333 -1 1756.163998
-0.01871003333 0.00616334 -1 1746.225586
-0.01679116667 0.007044653333 -1 1753.864103
-0.0179603 0.01030389 -1 1751.916202
-0.016343 0.0137329 -1 1754.666893
-0.01884316667 0.01269446667 -1 1752.589268
0.008638666667 0.01939113333 -1 1758.697434
0.01104956667 0.0201744 -1 1751.485747
0.02091826667 0.01019064 -1 1756.382051
0.0199548 0.01198576667 -1 1751.32218
-0.005921903333 0.02270116667 -1 1755.750398
-0.00731551 0.0198184 -1 1764.205447
-0.005888423333 0.02086646667 -1 1745.330234
-0.006416953333 0.02200506667 -1 1756.220902
-0.01114254 0.019377 -1 1749.829704
-0.009742493333 0.0208073 -1 1750.943222
-0.01056560667 0.02039946667 -1 1753.059164
-0.01415643333 0.01613176667 -1 1752.018236
-0.01691153333 0.01622546667 -1 1755.764421
-0.0131311 0.01862283333 -1 1754.111437
-0.00745474 0.02223253333 -1 1755.747753
-0.008647073333 0.02067636667 -1 1747.086517
-0.008257773333 0.0219519 -1 1753.72958
-0.02062966667 0.01020365667 -1 1754.904339
-0.0200076 0.01218186667 -1 1757.258183
-0.0200558 0.007462906667 -1 1754.40736
-0.02198623333 0.00693933 -1 1756.240326
-0.01966456667 0.009322446667 -1 1756.911023
-0.02188006667 0.008824603333 -1 1754.80847
-0.02056316667 0.01119113333 -1 1756.374325
-0.02158 0.009515293333 -1 1755.094669
-0.01425923333 -0.01773866667 -1 1751.803634
-0.01084256333 -0.0199438 -1 1759.406418
-0.004504563333 -0.02284223333 -1 1754.726272
-0.003580836667 -0.02301086667 -1 1751.749399
-0.007605313333 -0.02198253333 -1 1756.45269
-0.00777254 -0.01843606667 -1 1749.853306
-0.01920386667 -0.007800873333 -1 1768.90903
-0.020356 -0.006087533333 -1 1765.785992
-0.02189976667 -0.006600163333 -1 1756.480973
-0.01727063333 -0.0142765 -1 1758.914162
-0.01835243333 -0.0119934 -1 1750.596588
-0.02044916667 -0.00913407 -1 1758.023501
-0.01705166667 -0.01602383333 -1 1758.539261
-0.017595 -0.01541143333 -1 1757.321874
-0.01845103333 -0.013708 -1 1756.024635
-0.02183756667 -0.008597846667 -1 1755.211132
-0.0197076 -0.01174066667 -1 1751.90623
-0.0205738 -0.01017324333 -1 1756.238334
0.0202657 -0.007015363333 -1 1789.690138
0.02225806667 -0.00750208 -1 1764.320649
0.02097763333 -0.005788566667 -1 1741.485248
0.0224772 -0.006806 -1 1760.471507
0.02152273333 -0.008612823333 -1 1770.783419
0.0179744 -0.01514813333 -1 1749.604707
0.015886 -0.0170437 -1 1749.907884
0.01867173333 -0.0142695 -1 1748.673497
0.0197642 -0.01238133333 -1 1750.872402
0.02129063333 -0.007822943333 -1 1780.501183
0.0212074 -0.00933083 -1 1749.748023
0.00593675 -0.0225258 -1 1752.701746
0.00782603 -0.0221214 -1 1752.755689
0.00776417 -0.019654 -1 1751.757641
0.00639859 -0.02035163333 -1 1756.619923
0.0066552 -0.021777 -1 1753.847208
0.01046142667 -0.020145 -1 1754.366426
0.00887399 -0.02078086667 -1 1750.886315
0.00867924 -0.0218229 -1 1751.628225
0.01134866667 -0.0206751 -1 1750.412946
0.009857876667 -0.02092216667 -1 1751.5179
0.0151818 -0.01765643333 -1 1748.303705
0.01389803333 -0.0171847 -1 1754.464453
0.01228413333 -0.02011256667 -1 1751.03705
-0.02019516667 -0.01092203333 -1 1754.623703
-0.02213603333 -0.00777728 -1 1755.732935
-0.01497173333 0.01797233333 -1 1759.467116
-0.01862206667 0.01398463333 -1 1758.345321
-0.0170089 0.01507653333 -1 1753.119639
0.008200073333 0.00623519 -1 1751.412154
0.004120046667 0.004140873333 -1 1813.610669
0.00788747 0.004082843333 -1 1749.960075
0.006558653333 0.007479803333 -1 1785.04576
0.005917023333 0.002979283333 -1 1755.924762
0.004449073333 0.006489046667 -1 1761.144981
-0.006732176667 -0.006615256667 -1 1753.34698
-0.00327542 -0.00452604 -1 1771.084444
-0.006591576667 -0.00456366 -1 1794.855307
-0.005382936667 -0.00740906 -1 1745.20693
-0.004900296667 -0.00347101 -1 1755.942869
-0.00361746 -0.006412493333 -1 1753.102326
0.005701736667 -0.007911023333 -1 1749.126567
0.004233586667 -0.003335666667 -1 1782.430715
0.003540416667 -0.0074422 -1 1751.936836
0.007312796667 -0.00626951 -1 1775.231203
0.00266397 -0.00520083 -1 1750.765136
0.006721093333 -0.003935523333 -1 1778.819179
-0.0127676 -0.0193479 -1 1755.357436
-0.005154636667 -0.0163697 -1 1795.43751
-0.00481788 -0.02012976667 -1 1753.415106
-0.00653798 -0.0223109 -1 1754.021512
0.02274326667 0.005407036667 -1 1753.956454
0.02160833333 0.006365513333 -1 1755.594865
-0.02132096667 0.007653426667 -1 1748.632189
-0.02225303333 0.006048843333 -1 1749.979645
-0.0228329 -0.00522625 -1 1753.638113
0.0222217 -0.005900066667 -1 1750.803055
0.02340346667 -0.002533313333 -1 1749.699236
0.02289816667 -0.00527143 -1 1754.109259
0.02308203333 -0.004421353333 -1 1755.380095
0.002432583333 -0.02320233333 -1 1741.250387
0.004961756667 -0.02245153333 -1 1750.122542
0.00479776 -0.0231832 -1 1750.966178
0.008577656667 0.02196236667 -1 1750.084319
0.00700894 0.02178773333 -1 1748.973376
-0.01406863333 0.01867456667 -1 1755.33509
-0.0129353 0.01707743333 -1 1768.717807
0.004265856667 -0.0232942 -1 1748.908282
0.003902943333 -0.02197026667 -1 1744.494165
-0.01002782667 -0.02038196667 -1 1755.914371
-0.017921 0.01487853333 -1 1756.451768
-0.0174762 0.01224473333 -1 1754.605805
0.003964803114 -0.02639011143 -1 1745.304518
-0.004069797398 -0.02631451343 -1 1751.131128
-0.005587385332 -0.02603773466 -1 1748.202056
0.02345098314 -0.01260386162 -1 1745.47892
0.02515243023 -0.008677880586 -1 1746.129571
-0.02527551201 0.008482418524 -1 1751.001628
-0.0262196907 -0.00473641603 -1 1757.166521
-0.02644748794 -0.00319070719 -1 1755.028539
-0.02595199449 -0.006095163473 -1 1758.037934
-0.02635620825 0.003611698982 -1 1755.160145
-0.0260436287 0.005564332273 -1 1748.387397
0.009800471483 0.02484759365 -1 1749.902183
0.008871268646 0.02509499433 -1 1749.318364
0.02638125415 0.003716231986 -1 1748.145156
0.02659630511 0.001463067807 -1 1751.726393
0.02616526182 -0.004736809547 -1 1744.586068
0.02641283363 -0.003320164571 -1 1745.339894
0.02597343644 -0.006198002457 -1 1746.32278
-0.02026868169 0.01727993241 -1 1754.735665
-0.01933532307 0.01834182102 -1 1747.872871
-0.01830375418 0.01936733349 -1 1746.913737
-0.01724079762 0.02035917358 -1 1760.758678
-0.01740141346 -0.02021762268 -1 1750.244582
-0.01840447888 -0.0193042407 -1 1748.966305
-0.01930090847 -0.01838506068 -1 1748.364442
-0.02021488479 -0.01735760906 -1 1750.172477
0.01928839035 -0.01839715604 -1 1746.960712
0.018328002 -0.01935309696 -1 1747.157721
0.01572213978 -0.02153147549 -1 1751.887126
0.01714160576 -0.02037408147 -1 1750.687924
0.02021138367 -0.01734073951 -1 1748.988355
0.02131756796 -0.01590485606 -1 1753.224871
0.02247819507 -0.01432112142 -1 1745.944141
-0.02141596234 -0.01576115213 -1 1760.443453
-0.01596333157 -0.02132117676 -1 1757.002083
-0.02267587214 -0.0140474666 -1 1757.930041
-0.02137500036 0.01581968089 -1 1764.727712
-0.02261103392 0.01415753548 -1 1766.652127
-0.01570893067 0.02142628128 -1 1760.470708
-0.01401012174 0.0226993843 -1 1760.006198
0.02022738907 0.01735949223 -1 1753.219485
0.02134907127 0.01587728372 -1 1754.903983
0.02259163897 0.01410799648 -1 1752.193573
0.0160090021 0.0212168635 -1 1748.741389
0.01741830906 0.02016917809 -1 1746.424223
0.01435078748 0.02243196803 -1 1747.325866
0.0249197318 0.009352550402 -1 1755.7276
0.02553798605 -0.007558888075 -1 1745.568087
0.02657832144 -0.001795668059 -1 1747.23352
0.02666568295 -0.0003284361344 -1 1750.01422
0.02547608833 0.007744744329 -1 1756.645239
0.02595156667 0.005954227552 -1 1749.210766
0.01845812701 0.01925414667 -1 1746.208643
0.01934984107 0.01835674726 -1 1746.806435
0.007200406802 0.02561054072 -1 1760.055378
0.005047099085 0.02609764807 -1 1759.189297
0.002993496111 0.02644232312 -1 1754.271291
0.02348652567 0.01259983277 -1 1752.067258
-0.002595189228 0.02656125316 -1 1755.207305
-0.004084133173 0.02630373031 -1 1755.422974
-0.005682664736 0.02605324143 -1 1753.672812
-0.0085748103 0.02525063857 -1 1752.435983
-0.007237934939 0.0256140429 -1 1751.637708
-0.02569451464 0.006958246063 -1 1747.92722
-0.02514777966 -0.008802397821 -1 1753.962412
-0.02556401082 -0.007495630997 -1 1754.77067
-0.007114195257 -0.02566663695 -1 1748.102378
-0.008819456772 -0.02508938363 -1 1753.519014
-0.0009947787293 -0.02665323261 -1 1747.503363
0.0009708377723 -0.02664953435 -1 1745.46394
0.00579409444 -0.02608334672 -1 1749.175827
0.007146929583 -0.02563999647 -1 1748.706293
0.008853051948 -0.02511286213 -1 1750.830322
0.01408650223 -0.0225783804 -1 1751.884561
0.01257100227 -0.02350854145 -1 1746.434692
-0.01434808751 -0.02243833259 -1 1752.561618
-0.01290354951 -0.02327858019 -1 1749.671458
0.004853615537 -0.02617376116 -1 1748.35619
-0.002580675005 -0.02649789847 -1 1751.251795
-0.02348365743 -0.01264383535 -1 1757.060092
-0.02353354405 0.01243272486 -1 1742.047738
-0.01243733264 0.02356992896 -1 1755.225857
0.01271129809 0.02341524062 -1 1746.572279
0.0009208217003 0.02668736542 -1 1753.435565
-0.0009322715882 0.02665822304 -1 1753.090979
-0.02664409789 0.001241258519 -1 1755.941061
-0.02661325714 -0.001074743236 -1 1758.529511
0.01101342104 0.0241650689 -1 1747.781895
0.02426432093 0.0110998252 -1 1757.06299
-0.009842084536 0.02470935085 -1 1754.913366
-0.01110074914 0.02421489192 -1 1754.002063
-0.02438041523 0.01082068409 -1 1751.811873
-0.02461028342 -0.0100872063 -1 1756.7752
-0.02412717026 -0.01139105297 -1 1756.527538
0.02428681803 -0.01091006081 -1 1744.391121
0.02480955551 -0.009716136429 -1 1744.369896
0.01131429131 -0.02414312429 -1 1749.831969
0.01023261164 -0.02460163277 -1 1750.270471
-0.01037306692 -0.02457419942 -1 1750.604848
-0.01157551459 -0.02402133207 -1 1750.431025
-0.02470498609 0.009634382738 -1 1750.552397
0.002758032806 -0.02651083612 -1 1746.547843
0.004760318503 -0.03097056805 -1 1742.929585
-0.004987896161 -0.03095082934 -1 1751.60176
-0.006755276255 -0.030596909 -1 1748.600599
0.02764425078 -0.01473791691 -1 1748.559705
0.02962337553 -0.01017978921 -1 1748.956299
-0.02966328035 0.01009144727 -1 1752.088041
-0.03084653108 -0.005617333344 -1 1753.612051
-0.03110847546 -0.003783365558 -1 1752.952977
-0.03050149227 -0.007257262754 -1 1755.110782
-0.03100175463 0.004321504531 -1 1751.093148
-0.03066047329 0.006578143507 -1 1748.086985
0.01172750264 0.02908896105 -1 1746.042293
0.01061985347 0.02948050214 -1 1745.672369
0.03104867448 0.004350981198 -1 1752.94955
0.03129423264 0.001694180248 -1 1751.521105
0.03086048905 -0.005448402925 -1 1748.508892
0.03110552183 -0.003838973017 -1 1749.172741
0.03051628165 -0.00719039764 -1 1750.878944
-0.0238699175 0.02033469333 -1 1749.431276
-0.02272774159 0.02159166501 -1 1748.879577
-0.02150362325 0.02280163094 -1 1749.42069
-0.02018058419 0.02398421719 -1 1749.305976
-0.02043176934 -0.02377263905 -1 1742.211965
-0.02166942708 -0.02266135245 -1 1770.541527
-0.02276548765 -0.02156221511 -1 1761.889868
-0.02384815037 -0.02032700511 -1 1756.747327
0.02268644716 -0.02162754441 -1 1746.456458
0.02154575395 -0.02276821358 -1 1747.232393
0.0183798341 -0.0253449385 -1 1748.689463
0.02013310182 -0.02401484486 -1 1749.310365
0.02382551902 -0.02038792184 -1 1747.541887
0.02515157995 -0.01869928901 -1 1751.225406
0.02642113128 -0.01679082355 -1 1748.961157
-0.02524426509 -0.01851648872 -1 1757.461904
-0.01871176739 -0.02513030871 -1 1753.219934
-0.02664795704 -0.01650248275 -1 1760.647352
-0.02511759736 0.01867334913 -1 1751.366669
-0.02648875422 0.01671558285 -1 1750.008051
-0.01845391244 0.02529330974 -1 1750.836387
-0.01646438297 0.02664163988 -1 1753.970878
0.02387315777 0.0203366343 -1 1747.093169
0.0251955093 0.01858159568 -1 1749.314803
0.02660732848 0.01654208011 -1 1756.192171
0.01882188866 0.02507281415 -1 1748.450353
0.02039116202 0.02377403513 -1 1746.020821
0.01684411157 0.02636626155 -1 1749.215449
0.02938312794 0.01088263486 -1 1748.533551
0.03004419333 -0.008898078392 -1 1748.137321
0.03125175896 -0.00208312431 -1 1749.391836
0.03132509101 -0.0003879252352 -1 1748.773745
0.02999684262 0.009010697931 -1 1750.048187
0.03053308778 0.006970881809 -1 1750.833719
0.02164559964 0.02269076865 -1 1744.506263
0.02276195903 0.02157988897 -1 1744.968987
0.008590347538 0.03007800077 -1 1744.63264
0.006055093768 0.03072254113 -1 1745.073104
0.0036578921 0.03111656775 -1 1751.294572
0.02765730999 0.01478210096 -1 1748.228458
-0.00321703715 0.03113021318 -1 1752.206438
-0.004932629202 0.03092755772 -1 1751.88253
-0.006849073427 0.0306018551 -1 1754.653493
-0.01033422231 0.02961692762 -1 1753.573704
-0.008743731126 0.03008244266 -1 1752.954303
-0.03023482079 0.008254387026 -1 1748.381839
-0.02954329043 -0.01043673691 -1 1752.085138
-0.03002566575 -0.008921946112 -1 1751.588621
-0.00856652249 -0.0301545327 -1 1749.179305
-0.01046804252 -0.02949284533 -1 1754.512267
-0.00131442531 -0.03132136502 -1 1744.539659
0.001128845425 -0.03133043399 -1 1742.949578
0.006884132163 -0.03058943808 -1 1751.951323
0.008546285284 -0.03013716348 -1 1751.561066
0.01046984594 -0.02950075932 -1 1754.380808
0.01652816068 -0.02660204 -1 1750.529317
0.01480154995 -0.02764118199 -1 1747.946218
-0.01678415533 -0.02645095388 -1 1750.450205
-0.0151039799 -0.02746229516 -1 1749.236236
0.005782714894 -0.0307837008 -1 1748.366001
-0.003232896173 -0.03117401701 -1 1750.759412
-0.02764000221 -0.01483381945 -1 1747.660078
-0.02760707253 0.01470452187 -1 1749.338108
-0.01466779282 0.02771247669 -1 1749.001177
0.0149630068 0.027485124 -1 1747.05608
0.00107926563 0.03133823292 -1 1750.310553
-0.001250689762 0.03132310429 -1 1749.797302
-0.03129418215 0.001491839678 -1 1750.853807
-0.03128519004 -0.001312000934 -1 1753.198729
0.01314207488 0.02841629388 -1 1748.957954
0.0285209212 0.01294399806 -1 1754.242705
-0.01179296731 0.02901283581 -1 1752.445349
-0.01315419601 0.0284760293 -1 1751.167709
-0.02862585333 0.01279284598 -1 1750.513507
-0.02900052467 -0.01189518411 -1 1753.494626
-0.02839021512 -0.01333902307 -1 1752.648219
0.02863402436 -0.0126848679 -1 1747.481914
0.02919103497 -0.01131083461 -1 1748.031188
0.0133446171 -0.02839912481 -1 1749.26914
0.01207543835 -0.02899050914 -1 1751.699699
-0.01213076242 -0.02889832504 -1 1750.042949
-0.0135314094 -0.02828423933 -1 1750.686432
-0.0291505992 0.01145599712 -1 1749.543418
0.003328299931 -0.03117780851 -1 1743.826339
0.005446080987 -0.03484744009 -1 1741.377782
-0.005775044779 -0.03477021661 -1 1755.046784
-0.007762766108 -0.03440668363 -1 1749.309413
0.03111835057 -0.01647640954 -1 1748.542342
0.03340074044 -0.01139516858 -1 1749.866893
-0.03332675397 0.01147008977 -1 1747.946598
-0.03471177795 -0.006253631417 -1 1754.448044
-0.03501186732 -0.004161852763 -1 1752.25984
-0.03430875684 -0.008155689242 -1 1757.083109
-0.0348999177 0.004865029099 -1 1761.131199
-0.03448686638 0.007398171595 -1 1745.199969
0.01324962507 0.0326598642 -1 1744.850487
0.01202562297 0.03314042455 -1 1744.469443
0.0349253126 0.00484911449 -1 1747.538679
0.03520342522 0.001877753837 -1 1751.236016
0.03474411875 -0.006086822938 -1 1745.839297
0.03499311586 -0.004278604842 -1 1745.473085
0.03430279765 -0.007993704171 -1 1751.661462
-0.02687397618 0.02283630734 -1 1755.159571
-0.02556593355 0.02427889709 -1 1744.901831
-0.02421469945 0.02563076384 -1 1745.504843
-0.02270528608 0.02696173587 -1 1749.204409
-0.02295848295 -0.02676350374 -1 1749.907741
-0.02436884847 -0.02549326541 -1 1746.962242
-0.02560887028 -0.02424758146 -1 1747.269382
-0.02688620487 -0.02283771562 -1 1749.405662
0.02551444865 -0.02434349491 -1 1744.572982
0.02423752885 -0.02561977926 -1 1744.799577
0.0206575236 -0.02858171385 -1 1749.136204
0.02262108904 -0.02700918126 -1 1749.679992
0.02674940008 -0.02293417046 -1 1748.581749
0.02829311088 -0.02103349248 -1 1753.647984
0.02979189617 -0.01886510748 -1 1752.075374
-0.02846784258 -0.02077666893 -1 1750.475481
-0.02099943386 -0.02830865364 -1 1760.492151
-0.03000250386 -0.01852137528 -1 1754.405924
-0.02833259584 0.02098257028 -1 1756.63305
-0.02979086994 0.01879697082 -1 1755.381436
-0.0207521154 0.02850060345 -1 1750.306086
-0.01853029861 0.02999113022 -1 1755.525051
0.02686064666 0.02281809962 -1 1750.620058
0.02841708093 0.02087212065 -1 1751.427541
0.02999187951 0.01855080344 -1 1758.511196
0.021090449 0.02826052229 -1 1751.171126
0.02291766705 0.02679032685 -1 1748.071256
0.01887022414 0.02975264682 -1 1751.213072
0.03309298325 0.0121050817 -1 1749.531651
0.03384625203 -0.009903759303 -1 1747.997503
0.03519192358 -0.002322944025 -1 1749.133455
0.03527541025 -0.000423416702 -1 1749.551498
0.03376546199 0.01007142604 -1 1750.73158
0.03438390167 0.007836407691 -1 1751.33354
0.02430858141 0.02555588604 -1 1744.116271
0.0256007494 0.02427103192 -1 1744.983829
0.009714138892 0.03383283832 -1 1746.72064
0.006827754167 0.03456293564 -1 1746.653157
0.004135250145 0.03497898441 -1 1754.779249
0.03114933424 0.01654558948 -1 1749.934284
-0.003685928263 0.03504953304 -1 1753.150991
-0.005535806142 0.03483707342 -1 1753.476413
-0.007755677241 0.03440117341 -1 1755.945968
-0.01172692283 0.03324642363 -1 1754.184587
-0.009957392949 0.03382130484 -1 1753.340148
-0.03398535802 0.009365080599 -1 1745.609066
-0.033247529 -0.0117745048 -1 1753.597242
-0.03379530524 -0.01007072945 -1 1751.488463
-0.009822339061 -0.0338596633 -1 1747.719241
-0.0119019369 -0.03317800508 -1 1751.802775
-0.001573487188 -0.03522900661 -1 1744.725753
0.00126775221 -0.03523864139 -1 1743.062374
0.007776676044 -0.03439568375 -1 1745.99366
0.009669172761 -0.03389755094 -1 1747.093934
0.01180017222 -0.0332286646 -1 1751.762304
0.01856053586 -0.02998054543 -1 1750.86649
0.01665184017 -0.03109778898 -1 1750.651745
-0.01882341544 -0.02979921446 -1 1752.963405
-0.01693055357 -0.0309158664 -1 1750.403654
0.006560826347 -0.03467064158 -1 1747.388893