# p  FACE_DATA 1436
# x  y  z  p
-0.01592896667 -0.01653226667 -1 2859.969504
0.01657313333 0.0160208 -1 2898.894742
-0.01359063333 0.0128176 -1 2893.481836
-0.01482033333 0.01432873333 -1 2871.346058
0.01211303667 0.01419776667 -1 2910.820415
0.01388393333 0.0126157 -1 2916.664021
0.001551908 0.00029166 -1 2921.628432
-0.0007156886667 -0.00105012 -1 2898.322269
-0.008560706667 -0.0216334 -1 2867.168259
0.003726083333 -0.02337806667 -1 2888.26897
-0.001686294667 -0.02345993333 -1 2870.822504
-0.02261056667 -0.006060163333 -1 2876.426726
-0.02299816667 -0.004418926667 -1 2875.286496
-0.02246676667 0.005203306667 -1 2884.422063
-0.02320146667 0.00279448 -1 2903.005897
-0.00498936 0.0229274 -1 2890.509959
-0.003743463333 0.02230256667 -1 2902.343489
0.004729936667 0.02282936667 -1 2853.290825
-0.0003052272667 0.02244516667 -1 2873.812443
0.0008993827333 0.0232875 -1 2877.622093
0.0033239 0.02235963333 -1 2843.776385
0.00805101 0.02213043333 -1 2880.523358
-0.003047013333 0.02294196667 -1 2898.52088
0.02315596667 0.001468849 -1 2900.750109
-0.006040296667 -0.01846966667 -1 2919.52873
-0.008658103333 -0.02018026667 -1 2914.811345
-0.01128343 -0.01875673333 -1 2918.384707
-0.01064229667 -0.0168819 -1 2865.794911
-0.008939163333 -0.016511 -1 2880.888123
-0.002640472 -0.0196662 -1 2889.945525
-0.001521776667 -0.02118863333 -1 2866.709339
-0.0007416493667 -0.0235195 -1 2884.899953
-0.002363281333 -0.02268506667 -1 2872.435257
-0.005385393333 -0.02187766667 -1 2864.658671
-0.01372963333 -0.01867993333 -1 2880.638981
-0.01551826667 -0.01773573333 -1 2876.718034
-0.01233753333 -0.01583263333 -1 2906.875308
-0.01393723333 -0.01649033333 -1 2885.431971
-0.0165166 -0.016559 -1 2854.65271
-0.01530713333 -0.01555403333 -1 2889.151453
-0.01255346667 -0.01380173333 -1 2911.399147
-0.01466716667 -0.0130684 -1 2884.48727
-0.01582113333 -0.014163 -1 2872.976347
-0.006241333333 -0.01460193333 -1 2909.589659
-0.008293616667 -0.01477683333 -1 2869.132637
-0.01107326 -0.01256973333 -1 2886.481546
-0.008040483333 -0.01088154 -1 2868.939044
-0.009153743333 -0.01293456667 -1 2914.595134
-0.01489666667 -0.01103637333 -1 2880.601942
-0.01666883333 -0.01048500667 -1 2901.727062
-0.009315633333 -0.00919478 -1 2907.24572
-0.01128879333 -0.01015660667 -1 2892.221786
-0.0129985 -0.00935658 -1 2926.928673
-0.01331833333 -0.007017463333 -1 2926.438066
-0.01715733333 -0.008150286667 -1 2899.258207
-0.015705 -0.006362536667 -1 2885.047677
-0.02332943333 0.001398023333 -1 2868.267773
-0.02321333333 -0.002317283333 -1 2868.946134
-0.0233015 -0.001052146667 -1 2881.371652
-0.022495 -0.00328184 -1 2872.392667
-0.02207146667 0.003993153333 -1 2876.430609
-0.02270326667 0.00026796 -1 2883.399758
-0.02108106667 -0.00289455 -1 2875.66341
-0.01981813333 -0.00435292 -1 2932.189317
0.01496203333 -0.002770838667 -1 2907.882335
0.01880986667 -0.00754393 -1 2905.300131
0.01756106667 -0.006321716667 -1 2941.831088
0.01862416667 -0.009368483333 -1 2910.364239
0.02011306667 -0.01006252333 -1 2896.72056
0.0168075 -0.01083792667 -1 2902.177541
0.0203416 -0.01137893333 -1 2915.339701
0.02301863333 0.002832003333 -1 2941.774017
0.02222336667 0.003871473333 -1 2904.801487
0.01717916667 -0.002487185333 -1 2894.332539
0.01834126667 -0.004197446667 -1 2873.105287
0.01978043333 0.0002927566667 -1 2888.76345
0.01789906667 -0.000560062 -1 2920.357763
0.02349526667 -0.001601916 -1 2888.798314
0.02120653333 -0.0006361033333 -1 2880.306455
0.02273233333 0.0001634756667 -1 2892.24189
0.0235328 -0.0007296303333 -1 2890.820245
0.022801 -0.003308676667 -1 2882.078705
0.020302 -0.004192863333 -1 2933.998309
0.02137396667 -0.00275453 -1 2887.960461
0.01875806667 -0.01301643333 -1 2898.604786
0.01698396667 -0.01274003333 -1 2902.036764
0.01668933333 -0.01551156667 -1 2874.735483
0.01561256667 -0.01435653333 -1 2879.530061
0.01645603333 -0.01647973333 -1 2879.396275
0.01379646667 -0.01512173333 -1 2875.01725
0.01095759333 -0.01844986667 -1 2877.124225
0.0123613 -0.01864116667 -1 2888.679884
0.0134755 -0.0183751 -1 2893.646325
0.0152862 -0.006901776667 -1 2891.645504
0.01384926667 -0.00506116 -1 2920.396019
0.01471833333 -0.009593433333 -1 2894.081899
0.0123352 -0.01378586667 -1 2879.274991
0.01028757 -0.00951642 -1 2910.147232
0.01247926667 -0.01086707333 -1 2938.772912
0.00986414 -0.01715226667 -1 2899.439597
0.01022911333 -0.0148173 -1 2902.997786
0.00821159 -0.01105531333 -1 2874.023079
0.0082972 -0.0134374 -1 2882.101804
0.006265606667 -0.01450466667 -1 2918.204744
0.004687583333 -0.01335726667 -1 2894.438666
0.00624855 -0.01661663333 -1 2902.51052
0.00791517 -0.01788433333 -1 2877.980687
0.00457589 -0.0176349 -1 2882.985826
0.001719268 -0.02001463333 -1 2876.345737
0.0004626566667 -0.02127856667 -1 2894.963192
0.001390178633 -0.0232679 -1 2866.337566
0.003199173333 -0.0227858 -1 2903.426146
0.0005657973 -0.02283456667 -1 2875.96606
0.00487693 -0.01960023333 -1 2832.454965
0.003568583333 -0.02068953333 -1 2936.218911
-0.001880585333 -0.0177058 -1 2861.61807
-0.003172333333 -0.0160694 -1 2890.078812
-0.002349483333 -0.01419343333 -1 2861.308384
-0.0005302333333 -0.01400073333 -1 2898.673647
0.002967696667 -0.0138721 -1 2927.543234
0.00291957 -0.0169554 -1 2887.050528
0.0004186466667 -0.01538533333 -1 2858.327866
0.001371294667 -0.01824583333 -1 2864.193
-0.0001088553333 -0.01721443333 -1 2870.070322
0.002269483333 -0.0152879 -1 2860.819488
-0.00161266 0.01355823333 -1 2897.170122
0.02069983333 0.00378931 -1 2878.625588
0.01964536667 0.002373326667 -1 2900.927748
0.01145931 -0.00502932 -1 2876.938291
0.009841946667 -0.006939323333 -1 2915.04667
0.01389926667 -0.0009581926667 -1 2907.38766
0.014952 0.0009265173333 -1 2862.793705
0.01673466667 0.001040994667 -1 2891.098514
0.0004044566667 -0.005242376667 -1 2887.371414
-0.001054623333 -0.003604986667 -1 2906.027638
0.004662493333 -0.01135441667 -1 2868.282474
0.006154906667 -0.01011973 -1 2910.057373
0.00226098 -0.009115306667 -1 2873.600517
0.002929886667 -0.01081881667 -1 2908.037031
0.00028711 -0.0123142 -1 2886.858456
0.001934203333 -0.012283 -1 2871.883067
0.01187578667 -0.0009089336667 -1 2879.746984
0.01054859667 -0.002689739667 -1 2912.868948
0.01116812 0.0008222796667 -1 2929.877788
0.00940542 0.001211087 -1 2891.922458
0.009375046667 0.003102186667 -1 2912.924238
0.00790402 -9.6143e-05 -1 2897.307299
0.0059032 0.0006913966667 -1 2917.522772
0.003851203333 -0.00087836 -1 2890.926352
0.00833953 -0.002265756333 -1 2871.290454
-0.005257603333 -0.01267916667 -1 2871.514014
-0.006196626667 -0.01080104 -1 2880.024668
-0.003348056667 -0.01257096667 -1 2905.042267
-0.005110013333 -0.009207193333 -1 2863.203418
0.0003536266667 -0.00900402 -1 2900.578714
-0.00062645 -0.00737246 -1 2892.263064
-0.002440476667 -0.01080279667 -1 2874.525105
-0.00242757 -0.007621523333 -1 2859.99038
-0.00326341 -0.00931715 -1 2894.168573
-0.00062456 -0.01073873 -1 2915.359372
-0.004851666667 -0.001367041667 -1 2881.447591
-0.002887855333 0.000132795 -1 2918.422246
-0.003153502 0.002211918333 -1 2899.051731
-0.01172206667 -0.005270406667 -1 2868.293309
-0.008717683333 -0.00735423 -1 2907.653726
-0.009745343333 -0.005586706667 -1 2927.612631
-0.00827595 -0.00389521 -1 2876.441459
-0.005136056667 0.00488452 -1 2879.145814
-0.005198543333 0.002852951667 -1 2908.818368
-0.008501503333 -0.00193893 -1 2858.164676
-0.0067685 -0.0005034116667 -1 2888.809567
-0.00684973 0.001637458333 -1 2952.101659
-0.0201527 -0.0008378133333 -1 2885.62653
-0.02103766667 0.0006452366667 -1 2931.053935
-0.01879823333 0.004025293333 -1 2875.281684
-0.02053383333 0.002973973333 -1 2869.958759
-0.01694366667 0.002885116667 -1 2917.709291
-0.01045813 -0.001265709333 -1 2874.298534
-0.0122093 -0.002905689333 -1 2892.075674
-0.01801696667 -0.003282936667 -1 2878.737207
-0.01460493333 -1.568266667e-05 -1 2930.222277
-0.0182706 -0.0009383466667 -1 2884.881411
-0.016758 0.0006191166667 -1 2915.934385
-0.01617736667 -0.00401014 -1 2912.869455
-0.01427793333 -0.002300349333 -1 2879.75563
0.00531689 0.0195265 -1 2893.993631
0.0016994 0.0133476 -1 2879.589413
1.231333333e-05 0.0144302 -1 2898.576096
0.00759376 0.0165977 -1 2900.850434
0.00359044 0.0143401 -1 2920.597031
0.003608116667 0.01645466667 -1 2901.541855
0.005423266667 0.01752133333 -1 2876.730056
0.009174916667 0.0175885 -1 2905.377015
0.006951133333 0.0204055 -1 2907.002329
0.006017013333 0.02250693333 -1 2856.696438
0.009375453333 0.02161723333 -1 2879.636068
0.009813053333 0.02033233333 -1 2883.425493
-0.004147476667 0.02093773333 -1 2901.01208
0.0033031 0.02063323333 -1 2856.134502
0.002109943333 0.02319 -1 2892.824837
-0.001216793933 0.02311783333 -1 2878.324375
-0.002165013333 0.02304723333 -1 2894.56236
-0.0003137876667 0.02059146667 -1 2898.360588
1.406566667e-05 0.0164327 -1 2908.030811
0.001718829 0.01746466667 -1 2874.136895
0.001520189 0.01963806667 -1 2871.651059
-0.001710537667 0.01930336667 -1 2882.599152
-0.003473516667 0.0196642 -1 2923.231621
-0.001581324333 0.017318 -1 2868.703764
0.0186613 0.01409076667 -1 2925.86655
0.01797213333 0.0149675 -1 2898.797332
0.014122 0.01726563333 -1 2896.786184
0.01237703667 0.01633843333 -1 2904.358124
0.01265513333 0.01953446667 -1 2932.638203
0.01675866667 0.01492393333 -1 2901.415779
0.0159405 0.0132312 -1 2906.736042
0.01605803333 0.0165406 -1 2898.202447
0.0115347 0.0190973 -1 2916.286438
0.01545686667 0.01708663333 -1 2897.721529
0.01083443667 0.0174526 -1 2900.229467
0.01369983333 0.01881696667 -1 2933.091819
0.01113561333 0.003860196667 -1 2886.384492
0.01221476667 0.002462292667 -1 2868.961852
0.01397516667 0.002615789333 -1 2882.592062
0.0177626 0.002704026667 -1 2888.281793
0.005435856667 0.01322363333 -1 2884.103939
0.007624026667 0.01441456667 -1 2898.391795
0.00957865 0.01319953333 -1 2906.633434
0.00519824 0.01100212 -1 2874.858083
0.009131983333 0.01076049 -1 2903.320934
0.006939743333 0.00975401 -1 2908.280724
0.01082733667 0.00937291 -1 2892.95334
0.0130449 0.01022988667 -1 2924.490936
0.01027651667 0.007121816667 -1 2910.380129
0.01172448 0.00572748 -1 2877.527982
0.001484606667 0.01125236667 -1 2876.684023
0.00313803 0.01002335333 -1 2925.884559
-0.00185089 0.01164496667 -1 2889.731402
-0.00044071 0.0104217 -1 2928.157885
-0.001948985333 0.003991143333 -1 2889.723023
-0.00084906 0.00833136 -1 2877.209556
-0.003285566667 0.00567432 -1 2914.971751
-0.00281964 0.00760123 -1 2890.40791
0.00070818 0.00692316 -1 2920.673752
7.418133333e-05 0.004509853333 -1 2919.026068
0.001806928 0.003023006667 -1 2914.410758
0.002769953333 0.007784486667 -1 2878.726399
0.0139393 0.00633644 -1 2910.704438
0.01511083333 0.004622653333 -1 2860.687392
0.0147089 0.008587753333 -1 2875.112718
0.0171156 0.004596413333 -1 2903.854063
0.020235 0.005640163333 -1 2905.614223
0.01853353333 0.006116566667 -1 2937.04421
0.0169735 0.0094678 -1 2903.988685
0.01859726667 0.008230886667 -1 2889.493526
0.0188734 0.01254143333 -1 2907.76653
0.02166263333 0.00810798 -1 2900.058378
0.02049576667 0.01107403333 -1 2906.850552
0.02049373333 0.00904946 -1 2903.814191
0.01736606667 0.01172543333 -1 2916.515981
0.02200646667 0.00712847 -1 2892.445295
-0.004384243333 0.009150303333 -1 2950.353871
-0.003823843333 0.0111037 -1 2927.014515
-0.003324166667 0.01635176667 -1 2940.058002
-0.00668175 0.01794023333 -1 2889.876702
-0.004580703333 0.01771476667 -1 2892.378081
-0.00335375 0.0145945 -1 2900.487655
-0.004822013333 0.0130529 -1 2927.27929
-0.006840893333 0.0133211 -1 2912.407627
-0.01038063 0.01588596667 -1 2897.8822
-0.01135782333 0.01335393333 -1 2899.727706
-0.007929383333 0.0159605 -1 2915.106251
-0.01141897333 0.01752526667 -1 2880.095282
-0.0162952 0.01683946667 -1 2893.290316
-0.01525533333 0.01697493333 -1 2899.631459
-0.01246923333 0.019786 -1 2879.457702
-0.01072749667 0.001121180667 -1 2862.226487
-0.0088521 0.00258883 -1 2902.597172
-0.01280566667 0.001765867333 -1 2893.425779
-0.0152265 0.00424537 -1 2885.418789
-0.01324156667 0.00376092 -1 2909.608805
-0.008201263333 0.0114885 -1 2887.909796
-0.01026694667 0.01159586667 -1 2887.163045
-0.006639943333 0.00595886 -1 2937.325204
-0.0087048 0.004878663333 -1 2872.253479
-0.007905136667 0.009339396667 -1 2899.083853
-0.006354056667 0.008297733333 -1 2896.02551
-0.01211686667 0.005560986667 -1 2889.466377
-0.01107159 0.009601683333 -1 2925.596489
-0.009745686667 0.00827008 -1 2894.098536
-0.01025946333 0.00614822 -1 2915.928418
-0.01337553333 0.00709002 -1 2898.629672
-0.01284403333 0.009008856667 -1 2893.426805
-0.0142722 0.01046670667 -1 2881.540867
-0.0151622 0.00626686 -1 2893.621793
-0.01643266667 0.009325663333 -1 2894.821844
-0.01871003333 0.00616334 -1 2869.880042
-0.01679116667 0.007044653333 -1 2892.376067
-0.0179603 0.01030389 -1 2883.416971
-0.016343 0.0137329 -1 2887.664841
-0.01884316667 0.01269446667 -1 2886.41338
0.008638666667 0.01939113333 -1 2889.139605
0.01104956667 0.0201744 -1 2887.729987
0.02091826667 0.01019064 -1 2900.800039
0.0199548 0.01198576667 -1 2904.021409
-0.005921903333 0.02270116667 -1 2895.112569
-0.00731551 0.0198184 -1 2905.615505
-0.005888423333 0.02086646667 -1 2883.06934
-0.006416953333 0.02200506667 -1 2888.188716
-0.01114254 0.019377 -1 2875.693415
-0.009742493333 0.0208073 -1 2888.564792
-0.01056560667 0.02039946667 -1 2889.620216
-0.01415643333 0.01613176667 -1 2881.997773
-0.01691153333 0.01622546667 -1 2895.480493
-0.0131311 0.01862283333 -1 2889.469065
-0.00745474 0.02223253333 -1 2888.434975
-0.008647073333 0.02067636667 -1 2876.467972
-0.008257773333 0.0219519 -1 2892.144588
-0.02062966667 0.01020365667 -1 2880.017285
-0.0200076 0.01218186667 -1 2892.303503
-0.0200558 0.007462906667 -1 2886.789141
-0.02198623333 0.00693933 -1 2888.418463
-0.01966456667 0.009322446667 -1 2882.371066
-0.02188006667 0.008824603333 -1 2889.161718
-0.02056316667 0.01119113333 -1 2883.261296
-0.02158 0.009515293333 -1 2894.992414
-0.01425923333 -0.01773866667 -1 2878.090718
-0.01084256333 -0.0199438 -1 2907.977087
-0.004504563333 -0.02284223333 -1 2869.848006
-0.003580836667 -0.02301086667 -1 2873.868336
-0.007605313333 -0.02198253333 -1 2884.825801
-0.00777254 -0.01843606667 -1 2881.289024
-0.01920386667 -0.007800873333 -1 2895.802253
-0.020356 -0.006087533333 -1 2880.854341
-0.02189976667 -0.006600163333 -1 2876.636312
-0.01727063333 -0.0142765 -1 2896.476881
-0.01835243333 -0.0119934 -1 2874.642963
-0.02044916667 -0.00913407 -1 2916.947042
-0.01705166667 -0.01602383333 -1 2866.850177
-0.017595 -0.01541143333 -1 2873.933649
-0.01845103333 -0.013708 -1 2900.506802
-0.02183756667 -0.008597846667 -1 2892.13053
-0.0197076 -0.01174066667 -1 2884.275018
-0.0205738 -0.01017324333 -1 2908.472891
0.0202657 -0.007015363333 -1 2944.900021
0.02225806667 -0.00750208 -1 2910.012018
0.02097763333 -0.005788566667 -1 2866.218554
0.0224772 -0.006806 -1 2899.358038
0.02152273333 -0.008612823333 -1 2920.268842
0.0179744 -0.01514813333 -1 2881.717732
0.015886 -0.0170437 -1 2875.870738
0.01867173333 -0.0142695 -1 2915.529868
0.0197642 -0.01238133333 -1 2888.223793
0.02129063333 -0.007822943333 -1 2952.003093
0.0212074 -0.00933083 -1 2899.056319
0.00593675 -0.0225258 -1 2872.243987
0.00782603 -0.0221214 -1 2883.690896
0.00776417 -0.019654 -1 2880.543731
0.00639859 -0.02035163333 -1 2886.649379
0.0066552 -0.021777 -1 2875.264543
0.01046142667 -0.020145 -1 2886.193536
0.00887399 -0.02078086667 -1 2897.132107
0.00867924 -0.0218229 -1 2894.775973
0.01134866667 -0.0206751 -1 2878.002987
0.009857876667 -0.02092216667 -1 2888.746906
0.0151818 -0.01765643333 -1 2864.129356
0.01389803333 -0.0171847 -1 2887.623628
0.01228413333 -0.02011256667 -1 2882.646622
-0.02019516667 -0.01092203333 -1 2899.207726
-0.02213603333 -0.00777728 -1 2888.028702
-0.01497173333 0.01797233333 -1 2878.481941
-0.01862206667 0.01398463333 -1 2929.298634
-0.0170089 0.01507653333 -1 2874.590507
0.008200073333 0.00623519 -1 2879.705634
0.004120046667 0.004140873333 -1 2926.130748
0.00788747 0.004082843333 -1 2891.690719
0.006558653333 0.007479803333 -1 2910.893662
0.005917023333 0.002979283333 -1 2902.931027
0.004449073333 0.006489046667 -1 2899.267772
-0.006732176667 -0.006615256667 -1 2887.813232
-0.00327542 -0.00452604 -1 2884.411806
-0.006591576667 -0.00456366 -1 2933.598122
-0.005382936667 -0.00740906 -1 2867.373467
-0.004900296667 -0.00347101 -1 2874.184893
-0.00361746 -0.006412493333 -1 2900.262864
0.005701736667 -0.007911023333 -1 2874.089587
0.004233586667 -0.003335666667 -1 2912.262418
0.003540416667 -0.0074422 -1 2895.725004
0.007312796667 -0.00626951 -1 2904.170027
0.00266397 -0.00520083 -1 2885.496888
0.006721093333 -0.003935523333 -1 2905.197979
-0.0127676 -0.0193479 -1 2869.698931
-0.005154636667 -0.0163697 -1 2889.476835
-0.00481788 -0.02012976667 -1 2883.438055
-0.00653798 -0.0223109 -1 2879.539325
0.02274326667 0.005407036667 -1 2890.638227
0.02160833333 0.006365513333 -1 2896.883531
-0.02132096667 0.007653426667 -1 2872.6695
-0.02225303333 0.006048843333 -1 2883.285194
-0.0228329 -0.00522625 -1 2885.492959
0.0222217 -0.005900066667 -1 2894.275902
0.02340346667 -0.002533313333 -1 2880.828321
0.02289816667 -0.00527143 -1 2895.400127
0.02308203333 -0.004421353333 -1 2902.147905
0.002432583333 -0.02320233333 -1 2871.857502
0.004961756667 -0.02245153333 -1 2878.38164
0.00479776 -0.0231832 -1 2890.373945
0.008577656667 0.02196236667 -1 2878.724205
0.00700894 0.02178773333 -1 2865.70302
-0.01406863333 0.01867456667 -1 2891.369203
-0.0129353 0.01707743333 -1 2924.109326
0.004265856667 -0.0232942 -1 2882.704384
0.003902943333 -0.02197026667 -1 2848.903058
-0.01002782667 -0.02038196667 -1 2903.929211
-0.017921 0.01487853333 -1 2888.599052
-0.0174762 0.01224473333 -1 2872.857722
0.003964803114 -0.02639011143 -1 2851.447904
-0.004069797398 -0.02631451343 -1 2883.849869
-0.005587385332 -0.02603773466 -1 2869.541195
0.02345098314 -0.01260386162 -1 2864.808377
0.02515243023 -0.008677880586 -1 2862.933796
-0.02527551201 0.008482418524 -1 2877.184252
-0.0262196907 -0.00473641603 -1 2886.739258
-0.02644748794 -0.00319070719 -1 2869.929722
-0.02595199449 -0.006095163473 -1 2891.808944
-0.02635620825 0.003611698982 -1 2898.646576
-0.0260436287 0.005564332273 -1 2873.388452
0.009800471483 0.02484759365 -1 2884.188046
0.008871268646 0.02509499433 -1 2881.808782
0.02638125415 0.003716231986 -1 2896.973047
0.02659630511 0.001463067807 -1 2892.355063
0.02616526182 -0.004736809547 -1 2868.873295
0.02641283363 -0.003320164571 -1 2872.787781
0.02597343644 -0.006198002457 -1 2869.450422
-0.02026868169 0.01727993241 -1 2896.523535
-0.01933532307 0.01834182102 -1 2873.036421
-0.01830375418 0.01936733349 -1 2870.635522
-0.01724079762 0.02035917358 -1 2904.497886
-0.01740141346 -0.02021762268 -1 2890.171036
-0.01840447888 -0.0193042407 -1 2902.792869
-0.01930090847 -0.01838506068 -1 2901.345287
-0.02021488479 -0.01735760906 -1 2875.760362
0.01928839035 -0.01839715604 -1 2871.705232
0.018328002 -0.01935309696 -1 2870.684997
0.01572213978 -0.02153147549 -1 2888.648477
0.01714160576 -0.02037408147 -1 2880.097129
0.02021138367 -0.01734073951 -1 2879.153065
0.02131756796 -0.01590485606 -1 2900.559619
0.02247819507 -0.01432112142 -1 2865.901893
-0.02141596234 -0.01576115213 -1 2931.205315
-0.01596333157 -0.02132117676 -1 2927.041996
-0.02267587214 -0.0140474666 -1 2920.08899
-0.02137500036 0.01581968089 -1 2931.39922
-0.02261103392 0.01415753548 -1 2896.512888
-0.01570893067 0.02142628128 -1 2924.909272
-0.01401012174 0.0226993843 -1 2936.766864
0.02022738907 0.01735949223 -1 2903.8225
0.02134907127 0.01587728372 -1 2926.934871
0.02259163897 0.01410799648 -1 2911.115861
0.0160090021 0.0212168635 -1 2897.627465
0.01741830906 0.02016917809 -1 2888.027675
0.01435078748 0.02243196803 -1 2880.457571
0.0249197318 0.009352550402 -1 2876.594953
0.02553798605 -0.007558888075 -1 2864.097469
0.02657832144 -0.001795668059 -1 2867.841271
0.02666568295 -0.0003284361344 -1 2874.751383
0.02547608833 0.007744744329 -1 2889.574792
0.02595156667 0.005954227552 -1 2900.873622
0.01845812701 0.01925414667 -1 2882.712283
0.01934984107 0.01835674726 -1 2883.97571
0.007200406802 0.02561054072 -1 2930.529066
0.005047099085 0.02609764807 -1 2930.302181
0.002993496111 0.02644232312 -1 2908.736674
0.02348652567 0.01259983277 -1 2880.566688
-0.002595189228 0.02656125316 -1 2894.620198
-0.004084133173 0.02630373031 -1 2896.502408
-0.005682664736 0.02605324143 -1 2877.539093
-0.0085748103 0.02525063857 -1 2879.44997
-0.007237934939 0.0256140429 -1 2874.916378
-0.02569451464 0.006958246063 -1 2870.196622
-0.02514777966 -0.008802397821 -1 2879.419378
-0.02556401082 -0.007495630997 -1 2879.050427
-0.007114195257 -0.02566663695 -1 2868.830127
-0.008819456772 -0.02508938363 -1 2887.306786
-0.0009947787293 -0.02665323261 -1 2873.489624
0.0009708377723 -0.02664953435 -1 2864.424277
0.00579409444 -0.02608334672 -1 2871.1207
0.007146929583 -0.02563999647 -1 2858.644727
0.008853051948 -0.02511286213 -1 2867.314407
0.01408650223 -0.0225783804 -1 2884.728335
0.01257100227 -0.02350854145 -1 2854.405247
-0.01434808751 -0.02243833259 -1 2884.928558
-0.01290354951 -0.02327858019 -1 2865.753453
0.004853615537 -0.02617376116 -1 2862.165848
-0.002580675005 -0.02649789847 -1 2887.101384
-0.02348365743 -0.01264383535 -1 2873.642605
-0.02353354405 0.01243272486 -1 2850.45389
-0.01243733264 0.02356992896 -1 2871.518723
0.01271129809 0.02341524062 -1 2876.08618
0.0009208217003 0.02668736542 -1 2895.461251
-0.0009322715882 0.02665822304 -1 2887.528898
-0.02664409789 0.001241258519 -1 2872.9974
-0.02661325714 -0.001074743236 -1 2884.905422
0.01101342104 0.0241650689 -1 2879.874007
0.02426432093 0.0110998252 -1 2882.451423
-0.009842084536 0.02470935085 -1 2892.386104
-0.01110074914 0.02421489192 -1 2882.660749
-0.02438041523 0.01082068409 -1 2875.018817
-0.02461028342 -0.0100872063 -1 2890.979746
-0.02412717026 -0.01139105297 -1 2887.351635
0.02428681803 -0.01091006081 -1 2850.693402
0.02480955551 -0.009716136429 -1 2856.495106
0.01131429131 -0.02414312429 -1 2866.280556
0.01023261164 -0.02460163277 -1 2878.412146
-0.01037306692 -0.02457419942 -1 2879.362979
-0.01157551459 -0.02402133207 -1 2872.74976
-0.02470498609 0.009634382738 -1 2881.610358
0.002758032806 -0.02651083612 -1 2851.373509
0.004760318503 -0.03097056805 -1 2854.338323
-0.004987896161 -0.03095082934 -1 2884.334188
-0.006755276255 -0.030596909 -1 2865.313261
0.02764425078 -0.01473791691 -1 2874.774689
0.02962337553 -0.01017978921 -1 2871.206159
-0.02966328035 0.01009144727 -1 2888.658497
-0.03084653108 -0.005617333344 -1 2875.165436
-0.03110847546 -0.003783365558 -1 2866.31261
-0.03050149227 -0.007257262754 -1 2886.462415
-0.03100175463 0.004321504531 -1 2907.823091
-0.03066047329 0.006578143507 -1 2872.986298
0.01172750264 0.02908896105 -1 2880.936482
0.01061985347 0.02948050214 -1 2880.805972
0.03104867448 0.004350981198 -1 2913.288721
0.03129423264 0.001694180248 -1 2900.47296
0.03086048905 -0.005448402925 -1 2875.450876
0.03110552183 -0.003838973017 -1 2875.362738
0.03051628165 -0.00719039764 -1 2880.05203
-0.0238699175 0.02033469333 -1 2886.447202
-0.02272774159 0.02159166501 -1 2886.481013
-0.02150362325 0.02280163094 -1 2888.147366
-0.02018058419 0.02398421719 -1 2888.255843
-0.02043176934 -0.02377263905 -1 2869.631831
-0.02166942708 -0.02266135245 -1 2937.932581
-0.02276548765 -0.02156221511 -1 2929.241185
-0.02384815037 -0.02032700511 -1 2885.408191
0.02268644716 -0.02162754441 -1 2873.581618
0.02154575395 -0.02276821358 -1 2876.649427
0.0183798341 -0.0253449385 -1 2881.646333
0.02013310182 -0.02401484486 -1 2889.042895
0.02382551902 -0.02038792184 -1 2874.134869
0.02515157995 -0.01869928901 -1 2892.862407
0.02642113128 -0.01679082355 -1 2878.274739
-0.02524426509 -0.01851648872 -1 2928.821342
-0.01871176739 -0.02513030871 -1 2920.175236
-0.02664795704 -0.01650248275 -1 2914.015771
-0.02511759736 0.01867334913 -1 2908.458413
-0.02648875422 0.01671558285 -1 2886.31228
-0.01845391244 0.02529330974 -1 2907.484496
-0.01646438297 0.02664163988 -1 2919.73005
0.02387315777 0.0203366343 -1 2893.649237
0.0251955093 0.01858159568 -1 2910.611726
0.02660732848 0.01654208011 -1 2913.143605
0.01882188866 0.02507281415 -1 2891.670269
0.02039116202 0.02377403513 -1 2878.957264
0.01684411157 0.02636626155 -1 2884.22303
0.02938312794 0.01088263486 -1 2867.122286
0.03004419333 -0.008898078392 -1 2866.460009
0.03125175896 -0.00208312431 -1 2877.379783
0.03132509101 -0.0003879252352 -1 2875.776605
0.02999684262 0.009010697931 -1 2879.291816
0.03053308778 0.006970881809 -1 2892.286317
0.02164559964 0.02269076865 -1 2879.474297
0.02276195903 0.02157988897 -1 2879.820175
0.008590347538 0.03007800077 -1 2886.012134
0.006055093768 0.03072254113 -1 2886.554589
0.0036578921 0.03111656775 -1 2903.331945
0.02765730999 0.01478210096 -1 2869.649596
-0.00321703715 0.03113021318 -1 2888.587098
-0.004932629202 0.03092755772 -1 2891.522515
-0.006849073427 0.0306018551 -1 2887.723471
-0.01033422231 0.02961692762 -1 2886.527273
-0.008743731126 0.03008244266 -1 2882.642227
-0.03023482079 0.008254387026 -1 2874.096344
-0.02954329043 -0.01043673691 -1 2873.181654
-0.03002566575 -0.008921946112 -1 2867.037283
-0.00856652249 -0.0301545327 -1 2867.57544
-0.01046804252 -0.02949284533 -1 2889.938565
-0.00131442531 -0.03132136502 -1 2864.278004
0.001128845425 -0.03133043399 -1 2863.144793
0.006884132163 -0.03058943808 -1 2870.847996
0.008546285284 -0.03013716348 -1 2865.669071
0.01046984594 -0.02950075932 -1 2875.301037
0.01652816068 -0.02660204 -1 2890.736621
0.01480154995 -0.02764118199 -1 2861.800822
-0.01678415533 -0.02645095388 -1 2893.609908
-0.0151039799 -0.02746229516 -1 2862.346266
0.005782714894 -0.0307837008 -1 2864.766442
-0.003232896173 -0.03117401701 -1 2880.355792
-0.02764000221 -0.01483381945 -1 2858.197881
-0.02760707253 0.01470452187 -1 2874.571522
-0.01466779282 0.02771247669 -1 2866.274554
0.0149630068 0.027485124 -1 2874.348218
0.00107926563 0.03133823292 -1 2888.858119
-0.001250689762 0.03132310429 -1 2879.020084
-0.03129418215 0.001491839678 -1 2875.829592
-0.03128519004 -0.001312000934 -1 2878.560331
0.01314207488 0.02841629388 -1 2880.544037
0.0285209212 0.01294399806 -1 2878.299516
-0.01179296731 0.02901283581 -1 2893.497759
-0.01315419601 0.0284760293 -1 2880.388225
-0.02862585333 0.01279284598 -1 2883.121695
-0.02900052467 -0.01189518411 -1 2885.616267
-0.02839021512 -0.01333902307 -1 2873.154436
0.02863402436 -0.0126848679 -1 2863.629905
0.02919103497 -0.01131083461 -1 2864.599275
0.0133446171 -0.02839912481 -1 2871.004586
0.01207543835 -0.02899050914 -1 2883.749867
-0.01213076242 -0.02889832504 -1 2872.082328
-0.0135314094 -0.02828423933 -1 2867.968425
-0.0291505992 0.01145599712 -1 2891.045203
0.003328299931 -0.03117780851 -1 2855.537683
0.005446080987 -0.03484744009 -1 2848.670123
-0.005775044779 -0.03477021661 -1 2898.09232
-0.007762766108 -0.03440668363 -1 2867.886251
0.03111835057 -0.01647640954 -1 2876.50654
0.03340074044 -0.01139516858 -1 2873.080049
-0.03332675397 0.01147008977 -1 2900.464999
-0.03471177795 -0.006253631417 -1 2878.0493
-0.03501186732 -0.004161852763 -1 2860.702375
-0.03430875684 -0.008155689242 -1 2889.58273
-0.0348999177 0.004865029099 -1 2923.945166
-0.03448686638 0.007398171595 -1 2875.399275
0.01324962507 0.0326598642 -1 2881.272302
0.01202562297 0.03314042455 -1 2881.688104
0.0349253126 0.00484911449 -1 2951.404177
0.03520342522 0.001877753837 -1 2908.028873
0.03474411875 -0.006086822938 -1 2871.410119
0.03499311586 -0.004278604842 -1 2872.459824
0.03430279765 -0.007993704171 -1 2882.053482
-0.02687397618 0.02283630734 -1 2890.073665
-0.02556593355 0.02427889709 -1 2879.775491
-0.02421469945 0.02563076384 -1 2880.685097
-0.02270528608 0.02696173587 -1 2900.665473
-0.02295848295 -0.02676350374 -1 2878.597082
-0.02436884847 -0.02549326541 -1 2869.583581
-0.02560887028 -0.02424758146 -1 2871.237207
-0.02688620487 -0.02283771562 -1 2889.258214
0.02551444865 -0.02434349491 -1 2884.073712
0.02423752885 -0.02561977926 -1 2881.391345
0.0206575236 -0.02858171385 -1 2884.67198
0.02262108904 -0.02700918126 -1 2906.969565
0.02674940008 -0.02293417046 -1 2880.599868
0.02829311088 -0.02103349248 -1 2900.460359
0.02979189617 -0.01886510748 -1 2891.756571
-0.02846784258 -0.02077666893 -1 2909.095648
-0.02099943386 -0.02830865364 -1 2913.123042
-0.03000250386 -0.01852137528 -1 2900.046904
-0.02833259584 0.02098257028 -1 2908.091292
-0.02979086994 0.01879697082 -1 2916.223335
-0.0207521154 0.02850060345 -1 2900.000443
-0.01853029861 0.02999113022 -1 2910.365886
0.02686064666 0.02281809962 -1 2903.762329
0.02841708093 0.02087212065 -1 2909.060428
0.02999187951 0.01855080344 -1 2911.70922
0.021090449 0.02826052229 -1 2906.26451
0.02291766705 0.02679032685 -1 2887.175063
0.01887022414 0.02975264682 -1 2901.223189
0.03309298325 0.0121050817 -1 2863.789281
0.03384625203 -0.009903759303 -1 2866.20735
0.03519192358 -0.002322944025 -1 2875.33482
0.03527541025 -0.000423416702 -1 2873.14949
0.03376546199 0.01007142604 -1 2880.383829
0.03438390167 0.007836407691 -1 2886.858761
0.02430858141 0.02555588604 -1 2899.044925
0.0256007494 0.02427103192 -1 2906.978157
0.009714138892 0.03383283832 -1 2892.998068
0.006827754167 0.03456293564 -1 2893.143448
0.004135250145 0.03497898441 -1 2909.407217
0.03114933424 0.01654558948 -1 2867.137641
-0.003685928263 0.03504953304 -1 2887.408638
-0.005535806142 0.03483707342 -1 2892.838943
-0.007755677241 0.03440117341 -1 2887.502694
-0.01172692283 0.03324642363 -1 2883.944713
-0.009957392949 0.03382130484 -1 2879.71852
-0.03398535802 0.009365080599 -1 2875.125455
-0.033247529 -0.0117745048 -1 2869.945626
-0.03379530524 -0.01007072945 -1 2863.401805
-0.009822339061 -0.0338596633 -1 2866.545733
-0.0119019369 -0.03317800508 -1 2893.853331
-0.001573487188 -0.03522900661 -1 2874.873009
0.00126775221 -0.03523864139 -1 2876.14895
0.007776676044 -0.03439568375 -1 2861.937417
0.009669172761 -0.03389755094 -1 2859.12324
0.01180017222 -0.0332286646 -1 2872.005912
0.01856053586 -0.02998054543 -1 2900.534785
0.01665184017 -0.03109778898 -1 2858.286042
-0.01882341544 -0.02979921446 -1 2914.948577
-0.01693055357 -0.0309158664 -1 2859.651264
0.006560826347 -0.03467064158 -1 2858.771769