# p  FACE_DATA 1436
# x  y  z  p
-0.01592897 -0.01653227 -1 0
0.01657313 0.0160208 -1 0
-0.01359063 0.0128176 -1 0
-0.01482033 0.01432873 -1 0
0.01211304 0.01419777 -1 0
0.01388393 0.0126157 -1 0
0.001551908 0.00029166 -1 0
-0.0007156887 -0.00105012 -1 0
-0.008560707 -0.0216334 -1 0
0.003726083 -0.02337807 -1 0
-0.001686295 -0.02345993 -1 0
-0.02261057 -0.006060163 -1 0
-0.02299817 -0.004418927 -1 0
-0.02246677 0.005203307 -1 0
-0.02320147 0.00279448 -1 0
-0.00498936 0.0229274 -1 0
-0.003743463 0.02230257 -1 0
0.004729937 0.02282937 -1 0
-0.0003052273 0.02244517 -1 0
0.0008993827 0.0232875 -1 0
0.0033239 0.02235963 -1 0
0.00805101 0.02213043 -1 0
-0.003047013 0.02294197 -1 0
0.02315597 0.001468849 -1 0
-0.006040297 -0.01846967 -1 0
-0.008658103 -0.02018027 -1 0
-0.01128343 -0.01875673 -1 0
-0.0106423 -0.0168819 -1 0
-0.008939163 -0.016511 -1 0
-0.002640472 -0.0196662 -1 0
-0.001521777 -0.02118863 -1 0
-0.0007416494 -0.0235195 -1 0
-0.002363281 -0.02268507 -1 0
-0.005385393 -0.02187767 -1 0
-0.01372963 -0.01867993 -1 0
-0.01551827 -0.01773573 -1 0
-0.01233753 -0.01583263 -1 0
-0.01393723 -0.01649033 -1 0
-0.0165166 -0.016559 -1 0
-0.01530713 -0.01555403 -1 0
-0.01255347 -0.01380173 -1 0
-0.01466717 -0.0130684 -1 0
-0.01582113 -0.014163 -1 0
-0.006241333 -0.01460193 -1 0
-0.008293617 -0.01477683 -1 0
-0.01107326 -0.01256973 -1 0
-0.008040483 -0.01088154 -1 0
-0.009153743 -0.01293457 -1 0
-0.01489667 -0.01103637 -1 0
-0.01666883 -0.01048501 -1 0
-0.009315633 -0.00919478 -1 0
-0.01128879 -0.01015661 -1 0
-0.0129985 -0.00935658 -1 0
-0.01331833 -0.007017463 -1 0
-0.01715733 -0.008150287 -1 0
-0.015705 -0.006362537 -1 0
-0.02332943 0.001398023 -1 0
-0.02321333 -0.002317283 -1 0
-0.0233015 -0.001052147 -1 0
-0.022495 -0.00328184 -1 0
-0.02207147 0.003993153 -1 0
-0.02270327 0.00026796 -1 0
-0.02108107 -0.00289455 -1 0
-0.01981813 -0.00435292 -1 0
0.01496203 -0.002770839 -1 0
0.01880987 -0.00754393 -1 0
0.01756107 -0.006321717 -1 0
0.01862417 -0.009368483 -1 0
0.02011307 -0.01006252 -1 0
0.0168075 -0.01083793 -1 0
0.0203416 -0.01137893 -1 0
0.02301863 0.002832003 -1 0
0.02222337 0.003871473 -1 0
0.01717917 -0.002487185 -1 0
0.01834127 -0.004197447 -1 0
0.01978043 0.0002927567 -1 0
0.01789907 -0.000560062 -1 0
0.02349527 -0.001601916 -1 0
0.02120653 -0.0006361033 -1 0
0.02273233 0.0001634757 -1 0
0.0235328 -0.0007296303 -1 0
0.022801 -0.003308677 -1 0
0.020302 -0.004192863 -1 0
0.02137397 -0.00275453 -1 0
0.01875807 -0.01301643 -1 0
0.01698397 -0.01274003 -1 0
0.01668933 -0.01551157 -1 0
0.01561257 -0.01435653 -1 0
0.01645603 -0.01647973 -1 0
0.01379647 -0.01512173 -1 0
0.01095759 -0.01844987 -1 0
0.0123613 -0.01864117 -1 0
0.0134755 -0.0183751 -1 0
0.0152862 -0.006901777 -1 0
0.01384927 -0.00506116 -1 0
0.01471833 -0.009593433 -1 0
0.0123352 -0.01378587 -1 0
0.01028757 -0.00951642 -1 0
0.01247927 -0.01086707 -1 0
0.00986414 -0.01715227 -1 0
0.01022911 -0.0148173 -1 0
0.00821159 -0.01105531 -1 0
0.0082972 -0.0134374 -1 0
0.006265607 -0.01450467 -1 0
0.004687583 -0.01335727 -1 0
0.00624855 -0.01661663 -1 0
0.00791517 -0.01788433 -1 0
0.00457589 -0.0176349 -1 0
0.001719268 -0.02001463 -1 0
0.0004626567 -0.02127857 -1 0
0.001390179 -0.0232679 -1 0
0.003199173 -0.0227858 -1 0
0.0005657973 -0.02283457 -1 0
0.00487693 -0.01960023 -1 0
0.003568583 -0.02068953 -1 0
-0.001880585 -0.0177058 -1 0
-0.003172333 -0.0160694 -1 0
-0.002349483 -0.01419343 -1 0
-0.0005302333 -0.01400073 -1 0
0.002967697 -0.0138721 -1 0
0.00291957 -0.0169554 -1 0
0.0004186467 -0.01538533 -1 0
0.001371295 -0.01824583 -1 0
-0.0001088553 -0.01721443 -1 0
0.002269483 -0.0152879 -1 0
-0.00161266 0.01355823 -1 0
0.02069983 0.00378931 -1 0
0.01964537 0.002373327 -1 0
0.01145931 -0.00502932 -1 0
0.009841947 -0.006939323 -1 0
0.01389927 -0.0009581927 -1 0
0.014952 0.0009265173 -1 0
0.01673467 0.001040995 -1 0
0.0004044567 -0.005242377 -1 0
-0.001054623 -0.003604987 -1 0
0.004662493 -0.01135442 -1 0
0.006154907 -0.01011973 -1 0
0.00226098 -0.009115307 -1 0
0.002929887 -0.01081882 -1 0
0.00028711 -0.0123142 -1 0
0.001934203 -0.012283 -1 0
0.01187579 -0.0009089337 -1 0
0.0105486 -0.00268974 -1 0
0.01116812 0.0008222797 -1 0
0.00940542 0.001211087 -1 0
0.009375047 0.003102187 -1 0
0.00790402 -9.6143e-05 -1 0
0.0059032 0.0006913967 -1 0
0.003851203 -0.00087836 -1 0
0.00833953 -0.002265756 -1 0
-0.005257603 -0.01267917 -1 0
-0.006196627 -0.01080104 -1 0
-0.003348057 -0.01257097 -1 0
-0.005110013 -0.009207193 -1 0
0.0003536267 -0.00900402 -1 0
-0.00062645 -0.00737246 -1 0
-0.002440477 -0.0108028 -1 0
-0.00242757 -0.007621523 -1 0
-0.00326341 -0.00931715 -1 0
-0.00062456 -0.01073873 -1 0
-0.004851667 -0.001367042 -1 0
-0.002887855 0.000132795 -1 0
-0.003153502 0.002211918 -1 0
-0.01172207 -0.005270407 -1 0
-0.008717683 -0.00735423 -1 0
-0.009745343 -0.005586707 -1 0
-0.00827595 -0.00389521 -1 0
-0.005136057 0.00488452 -1 0
-0.005198543 0.002852952 -1 0
-0.008501503 -0.00193893 -1 0
-0.0067685 -0.0005034117 -1 0
-0.00684973 0.001637458 -1 0
-0.0201527 -0.0008378133 -1 0
-0.02103767 0.0006452367 -1 0
-0.01879823 0.004025293 -1 0
-0.02053383 0.002973973 -1 0
-0.01694367 0.002885117 -1 0
-0.01045813 -0.001265709 -1 0
-0.0122093 -0.002905689 -1 0
-0.01801697 -0.003282937 -1 0
-0.01460493 -1.568267e-05 -1 0
-0.0182706 -0.0009383467 -1 0
-0.016758 0.0006191167 -1 0
-0.01617737 -0.00401014 -1 0
-0.01427793 -0.002300349 -1 0
0.00531689 0.0195265 -1 0
0.0016994 0.0133476 -1 0
1.231333e-05 0.0144302 -1 0
0.00759376 0.0165977 -1 0
0.00359044 0.0143401 -1 0
0.003608117 0.01645467 -1 0
0.005423267 0.01752133 -1 0
0.009174917 0.0175885 -1 0
0.006951133 0.0204055 -1 0
0.006017013 0.02250693 -1 0
0.009375453 0.02161723 -1 0
0.009813053 0.02033233 -1 0
-0.004147477 0.02093773 -1 0
0.0033031 0.02063323 -1 0
0.002109943 0.02319 -1 0
-0.001216794 0.02311783 -1 0
-0.002165013 0.02304723 -1 0
-0.0003137877 0.02059147 -1 0
1.406567e-05 0.0164327 -1 0
0.001718829 0.01746467 -1 0
0.001520189 0.01963807 -1 0
-0.001710538 0.01930337 -1 0
-0.003473517 0.0196642 -1 0
-0.001581324 0.017318 -1 0
0.0186613 0.01409077 -1 0
0.01797213 0.0149675 -1 0
0.014122 0.01726563 -1 0
0.01237704 0.01633843 -1 0
0.01265513 0.01953447 -1 0
0.01675867 0.01492393 -1 0
0.0159405 0.0132312 -1 0
0.01605803 0.0165406 -1 0
0.0115347 0.0190973 -1 0
0.01545687 0.01708663 -1 0
0.01083444 0.0174526 -1 0
0.01369983 0.01881697 -1 0
0.01113561 0.003860197 -1 0
0.01221477 0.002462293 -1 0
0.01397517 0.002615789 -1 0
0.0177626 0.002704027 -1 0
0.005435857 0.01322363 -1 0
0.007624027 0.01441457 -1 0
0.00957865 0.01319953 -1 0
0.00519824 0.01100212 -1 0
0.009131983 0.01076049 -1 0
0.006939743 0.00975401 -1 0
0.01082734 0.00937291 -1 0
0.0130449 0.01022989 -1 0
0.01027652 0.007121817 -1 0
0.01172448 0.00572748 -1 0
0.001484607 0.01125237 -1 0
0.00313803 0.01002335 -1 0
-0.00185089 0.01164497 -1 0
-0.00044071 0.0104217 -1 0
-0.001948985 0.003991143 -1 0
-0.00084906 0.00833136 -1 0
-0.003285567 0.00567432 -1 0
-0.00281964 0.00760123 -1 0
0.00070818 0.00692316 -1 0
7.418133e-05 0.004509853 -1 0
0.001806928 0.003023007 -1 0
0.002769953 0.007784487 -1 0
0.0139393 0.00633644 -1 0
0.01511083 0.004622653 -1 0
0.0147089 0.008587753 -1 0
0.0171156 0.004596413 -1 0
0.020235 0.005640163 -1 0
0.01853353 0.006116567 -1 0
0.0169735 0.0094678 -1 0
0.01859727 0.008230887 -1 0
0.0188734 0.01254143 -1 0
0.02166263 0.00810798 -1 0
0.02049577 0.01107403 -1 0
0.02049373 0.00904946 -1 0
0.01736607 0.01172543 -1 0
0.02200647 0.00712847 -1 0
-0.004384243 0.009150303 -1 0
-0.003823843 0.0111037 -1 0
-0.003324167 0.01635177 -1 0
-0.00668175 0.01794023 -1 0
-0.004580703 0.01771477 -1 0
-0.00335375 0.0145945 -1 0
-0.004822013 0.0130529 -1 0
-0.006840893 0.0133211 -1 0
-0.01038063 0.01588597 -1 0
-0.01135782 0.01335393 -1 0
-0.007929383 0.0159605 -1 0
-0.01141897 0.01752527 -1 0
-0.0162952 0.01683947 -1 0
-0.01525533 0.01697493 -1 0
-0.01246923 0.019786 -1 0
-0.0107275 0.001121181 -1 0
-0.0088521 0.00258883 -1 0
-0.01280567 0.001765867 -1 0
-0.0152265 0.00424537 -1 0
-0.01324157 0.00376092 -1 0
-0.008201263 0.0114885 -1 0
-0.01026695 0.01159587 -1 0
-0.006639943 0.00595886 -1 0
-0.0087048 0.004878663 -1 0
-0.007905137 0.009339397 -1 0
-0.006354057 0.008297733 -1 0
-0.01211687 0.005560987 -1 0
-0.01107159 0.009601683 -1 0
-0.009745687 0.00827008 -1 0
-0.01025946 0.00614822 -1 0
-0.01337553 0.00709002 -1 0
-0.01284403 0.009008857 -1 0
-0.0142722 0.01046671 -1 0
-0.0151622 0.00626686 -1 0
-0.01643267 0.009325663 -1 0
-0.01871003 0.00616334 -1 0
-0.01679117 0.007044653 -1 0
-0.0179603 0.01030389 -1 0
-0.016343 0.0137329 -1 0
-0.01884317 0.01269447 -1 0
0.008638667 0.01939113 -1 0
0.01104957 0.0201744 -1 0
0.02091827 0.01019064 -1 0
0.0199548 0.01198577 -1 0
-0.005921903 0.02270117 -1 0
-0.00731551 0.0198184 -1 0
-0.005888423 0.02086647 -1 0
-0.006416953 0.02200507 -1 0
-0.01114254 0.019377 -1 0
-0.009742493 0.0208073 -1 0
-0.01056561 0.02039947 -1 0
-0.01415643 0.01613177 -1 0
-0.01691153 0.01622547 -1 0
-0.0131311 0.01862283 -1 0
-0.00745474 0.02223253 -1 0
-0.008647073 0.02067637 -1 0
-0.008257773 0.0219519 -1 0
-0.02062967 0.01020366 -1 0
-0.0200076 0.01218187 -1 0
-0.0200558 0.007462907 -1 0
-0.02198623 0.00693933 -1 0
-0.01966457 0.009322447 -1 0
-0.02188007 0.008824603 -1 0
-0.02056317 0.01119113 -1 0
-0.02158 0.009515293 -1 0
-0.01425923 -0.01773867 -1 0
-0.01084256 -0.0199438 -1 0
-0.004504563 -0.02284223 -1 0
-0.003580837 -0.02301087 -1 0
-0.007605313 -0.02198253 -1 0
-0.00777254 -0.01843607 -1 0
-0.01920387 -0.007800873 -1 0
-0.020356 -0.006087533 -1 0
-0.02189977 -0.006600163 -1 0
-0.01727063 -0.0142765 -1 0
-0.01835243 -0.0119934 -1 0
-0.02044917 -0.00913407 -1 0
-0.01705167 -0.01602383 -1 0
-0.017595 -0.01541143 -1 0
-0.01845103 -0.013708 -1 0
-0.02183757 -0.008597847 -1 0
-0.0197076 -0.01174067 -1 0
-0.0205738 -0.01017324 -1 0
0.0202657 -0.007015363 -1 0
0.02225807 -0.00750208 -1 0
0.02097763 -0.005788567 -1 0
0.0224772 -0.006806 -1 0
0.02152273 -0.008612823 -1 0
0.0179744 -0.01514813 -1 0
0.015886 -0.0170437 -1 0
0.01867173 -0.0142695 -1 0
0.0197642 -0.01238133 -1 0
0.02129063 -0.007822943 -1 0
0.0212074 -0.00933083 -1 0
0.00593675 -0.0225258 -1 0
0.00782603 -0.0221214 -1 0
0.00776417 -0.019654 -1 0
0.00639859 -0.02035163 -1 0
0.0066552 -0.021777 -1 0
0.01046143 -0.020145 -1 0
0.00887399 -0.02078087 -1 0
0.00867924 -0.0218229 -1 0
0.01134867 -0.0206751 -1 0
0.009857877 -0.02092217 -1 0
0.0151818 -0.01765643 -1 0
0.01389803 -0.0171847 -1 0
0.01228413 -0.02011257 -1 0
-0.02019517 -0.01092203 -1 0
-0.02213603 -0.00777728 -1 0
-0.01497173 0.01797233 -1 0
-0.01862207 0.01398463 -1 0
-0.0170089 0.01507653 -1 0
0.008200073 0.00623519 -1 0
0.004120047 0.004140873 -1 0
0.00788747 0.004082843 -1 0
0.006558653 0.007479803 -1 0
0.005917023 0.002979283 -1 0
0.004449073 0.006489047 -1 0
-0.006732177 -0.006615257 -1 0
-0.00327542 -0.00452604 -1 0
-0.006591577 -0.00456366 -1 0
-0.005382937 -0.00740906 -1 0
-0.004900297 -0.00347101 -1 0
-0.00361746 -0.006412493 -1 0
0.005701737 -0.007911023 -1 0
0.004233587 -0.003335667 -1 0
0.003540417 -0.0074422 -1 0
0.007312797 -0.00626951 -1 0
0.00266397 -0.00520083 -1 0
0.006721093 -0.003935523 -1 0
-0.0127676 -0.0193479 -1 0
-0.005154637 -0.0163697 -1 0
-0.00481788 -0.02012977 -1 0
-0.00653798 -0.0223109 -1 0
0.02274327 0.005407037 -1 0
0.02160833 0.006365513 -1 0
-0.02132097 0.007653427 -1 0
-0.02225303 0.006048843 -1 0
-0.0228329 -0.00522625 -1 0
0.0222217 -0.005900067 -1 0
0.02340347 -0.002533313 -1 0
0.02289817 -0.00527143 -1 0
0.02308203 -0.004421353 -1 0
0.002432583 -0.02320233 -1 0
0.004961757 -0.02245153 -1 0
0.00479776 -0.0231832 -1 0
0.008577657 0.02196237 -1 0
0.00700894 0.02178773 -1 0
-0.01406863 0.01867457 -1 0
-0.0129353 0.01707743 -1 0
0.004265857 -0.0232942 -1 0
0.003902943 -0.02197027 -1 0
-0.01002783 -0.02038197 -1 0
-0.017921 0.01487853 -1 0
-0.0174762 0.01224473 -1 0
0.003964803 -0.02639011 -1 0
-0.004069797 -0.02631451 -1 0
-0.005587385 -0.02603773 -1 0
0.02345098 -0.01260386 -1 0
0.02515243 -0.008677881 -1 0
-0.02527551 0.008482419 -1 0
-0.02621969 -0.004736416 -1 0
-0.02644749 -0.003190707 -1 0
-0.02595199 -0.006095163 -1 0
-0.02635621 0.003611699 -1 0
-0.02604363 0.005564332 -1 0
0.009800471 0.02484759 -1 0
0.008871269 0.02509499 -1 0
0.02638125 0.003716232 -1 0
0.02659631 0.001463068 -1 0
0.02616526 -0.00473681 -1 0
0.02641283 -0.003320165 -1 0
0.02597344 -0.006198002 -1 0
-0.02026868 0.01727993 -1 0
-0.01933532 0.01834182 -1 0
-0.01830375 0.01936733 -1 0
-0.0172408 0.02035917 -1 0
-0.01740141 -0.02021762 -1 0
-0.01840448 -0.01930424 -1 0
-0.01930091 -0.01838506 -1 0
-0.02021488 -0.01735761 -1 0
0.01928839 -0.01839716 -1 0
0.018328 -0.0193531 -1 0
0.01572214 -0.02153148 -1 0
0.01714161 -0.02037408 -1 0
0.02021138 -0.01734074 -1 0
0.02131757 -0.01590486 -1 0
0.0224782 -0.01432112 -1 0
-0.02141596 -0.01576115 -1 0
-0.01596333 -0.02132118 -1 0
-0.02267587 -0.01404747 -1 0
-0.021375 0.01581968 -1 0
-0.02261103 0.01415754 -1 0
-0.01570893 0.02142628 -1 0
-0.01401012 0.02269938 -1 0
0.02022739 0.01735949 -1 0
0.02134907 0.01587728 -1 0
0.02259164 0.014108 -1 0
0.016009 0.02121686 -1 0
0.01741831 0.02016918 -1 0
0.01435079 0.02243197 -1 0
0.02491973 0.00935255 -1 0
0.02553799 -0.007558888 -1 0
0.02657832 -0.001795668 -1 0
0.02666568 -0.0003284361 -1 0
0.02547609 0.007744744 -1 0
0.02595157 0.005954228 -1 0
0.01845813 0.01925415 -1 0
0.01934984 0.01835675 -1 0
0.007200407 0.02561054 -1 0
0.005047099 0.02609765 -1 0
0.002993496 0.02644232 -1 0
0.02348653 0.01259983 -1 0
-0.002595189 0.02656125 -1 0
-0.004084133 0.02630373 -1 0
-0.005682665 0.02605324 -1 0
-0.00857481 0.02525064 -1 0
-0.007237935 0.02561404 -1 0
-0.02569451 0.006958246 -1 0
-0.02514778 -0.008802398 -1 0
-0.02556401 -0.007495631 -1 0
-0.007114195 -0.02566664 -1 0
-0.008819457 -0.02508938 -1 0
-0.0009947787 -0.02665323 -1 0
0.0009708378 -0.02664953 -1 0
0.005794094 -0.02608335 -1 0
0.00714693 -0.02564 -1 0
0.008853052 -0.02511286 -1 0
0.0140865 -0.02257838 -1 0
0.012571 -0.02350854 -1 0
-0.01434809 -0.02243833 -1 0
-0.01290355 -0.02327858 -1 0
0.004853616 -0.02617376 -1 0
-0.002580675 -0.0264979 -1 0
-0.02348366 -0.01264384 -1 0
-0.02353354 0.01243272 -1 0
-0.01243733 0.02356993 -1 0
0.0127113 0.02341524 -1 0
0.0009208217 0.02668737 -1 0
-0.0009322716 0.02665822 -1 0
-0.0266441 0.001241259 -1 0
-0.02661326 -0.001074743 -1 0
0.01101342 0.02416507 -1 0
0.02426432 0.01109983 -1 0
-0.009842085 0.02470935 -1 0
-0.01110075 0.02421489 -1 0
-0.02438042 0.01082068 -1 0
-0.02461028 -0.01008721 -1 0
-0.02412717 -0.01139105 -1 0
0.02428682 -0.01091006 -1 0
0.02480956 -0.009716136 -1 0
0.01131429 -0.02414312 -1 0
0.01023261 -0.02460163 -1 0
-0.01037307 -0.0245742 -1 0
-0.01157551 -0.02402133 -1 0
-0.02470499 0.009634383 -1 0
0.002758033 -0.02651084 -1 0
0.004760319 -0.03097057 -1 0
-0.004987896 -0.03095083 -1 0
-0.006755276 -0.03059691 -1 0
0.02764425 -0.01473792 -1 0
0.02962338 -0.01017979 -1 0
-0.02966328 0.01009145 -1 0
-0.03084653 -0.005617333 -1 0
-0.03110848 -0.003783366 -1 0
-0.03050149 -0.007257263 -1 0
-0.03100175 0.004321505 -1 0
-0.03066047 0.006578144 -1 0
0.0117275 0.02908896 -1 0
0.01061985 0.0294805 -1 0
0.03104867 0.004350981 -1 0
0.03129423 0.00169418 -1 0
0.03086049 -0.005448403 -1 0
0.03110552 -0.003838973 -1 0
0.03051628 -0.007190398 -1 0
-0.02386992 0.02033469 -1 0
-0.02272774 0.02159167 -1 0
-0.02150362 0.02280163 -1 0
-0.02018058 0.02398422 -1 0
-0.02043177 -0.02377264 -1 0
-0.02166943 -0.02266135 -1 0
-0.02276549 -0.02156222 -1 0
-0.02384815 -0.02032701 -1 0
0.02268645 -0.02162754 -1 0
0.02154575 -0.02276821 -1 0
0.01837983 -0.02534494 -1 0
0.0201331 -0.02401484 -1 0
0.02382552 -0.02038792 -1 0
0.02515158 -0.01869929 -1 0
0.02642113 -0.01679082 -1 0
-0.02524427 -0.01851649 -1 0
-0.01871177 -0.02513031 -1 0
-0.02664796 -0.01650248 -1 0
-0.0251176 0.01867335 -1 0
-0.02648875 0.01671558 -1 0
-0.01845391 0.02529331 -1 0
-0.01646438 0.02664164 -1 0
0.02387316 0.02033663 -1 0
0.02519551 0.0185816 -1 0
0.02660733 0.01654208 -1 0
0.01882189 0.02507281 -1 0
0.02039116 0.02377404 -1 0
0.01684411 0.02636626 -1 0
0.02938313 0.01088263 -1 0
0.03004419 -0.008898078 -1 0
0.03125176 -0.002083124 -1 0
0.03132509 -0.0003879252 -1 0
0.02999684 0.009010698 -1 0
0.03053309 0.006970882 -1 0
0.0216456 0.02269077 -1 0
0.02276196 0.02157989 -1 0
0.008590348 0.030078 -1 0
0.006055094 0.03072254 -1 0
0.003657892 0.03111657 -1 0
0.02765731 0.0147821 -1 0
-0.003217037 0.03113021 -1 0
-0.004932629 0.03092756 -1 0
-0.006849073 0.03060186 -1 0
-0.01033422 0.02961693 -1 0
-0.008743731 0.03008244 -1 0
-0.03023482 0.008254387 -1 0
-0.02954329 -0.01043674 -1 0
-0.03002567 -0.008921946 -1 0
-0.008566522 -0.03015453 -1 0
-0.01046804 -0.02949285 -1 0
-0.001314425 -0.03132137 -1 0
0.001128845 -0.03133043 -1 0
0.006884132 -0.03058944 -1 0
0.008546285 -0.03013716 -1 0
0.01046985 -0.02950076 -1 0
0.01652816 -0.02660204 -1 0
0.01480155 -0.02764118 -1 0
-0.01678416 -0.02645095 -1 0
-0.01510398 -0.0274623 -1 0
0.005782715 -0.0307837 -1 0
-0.003232896 -0.03117402 -1 0
-0.02764 -0.01483382 -1 0
-0.02760707 0.01470452 -1 0
-0.01466779 0.02771248 -1 0
0.01496301 0.02748512 -1 0
0.001079266 0.03133823 -1 0
-0.00125069 0.0313231 -1 0
-0.03129418 0.00149184 -1 0
-0.03128519 -0.001312001 -1 0
0.01314207 0.02841629 -1 0
0.02852092 0.012944 -1 0
-0.01179297 0.02901284 -1 0
-0.0131542 0.02847603 -1 0
-0.02862585 0.01279285 -1 0
-0.02900052 -0.01189518 -1 0
-0.02839022 -0.01333902 -1 0
0.02863402 -0.01268487 -1 0
0.02919103 -0.01131083 -1 0
0.01334462 -0.02839912 -1 0
0.01207544 -0.02899051 -1 0
-0.01213076 -0.02889833 -1 0
-0.01353141 -0.02828424 -1 0
-0.0291506 0.011456 -1 0
0.0033283 -0.03117781 -1 0
0.005446081 -0.03484744 -1 0
-0.005775045 -0.03477022 -1 0
-0.007762766 -0.03440668 -1 0
0.03111835 -0.01647641 -1 0
0.03340074 -0.01139517 -1 0
-0.03332675 0.01147009 -1 0
-0.03471178 -0.006253631 -1 0
-0.03501187 -0.004161853 -1 0
-0.03430876 -0.008155689 -1 0
-0.03489992 0.004865029 -1 0
-0.03448687 0.007398172 -1 0
0.01324963 0.03265986 -1 0
0.01202562 0.03314042 -1 0
0.03492531 0.004849114 -1 0
0.03520343 0.001877754 -1 0
0.03474412 -0.006086823 -1 0
0.03499312 -0.004278605 -1 0
0.0343028 -0.007993704 -1 0
-0.02687398 0.02283631 -1 0
-0.02556593 0.0242789 -1 0
-0.0242147 0.02563076 -1 0
-0.02270529 0.02696174 -1 0
-0.02295848 -0.0267635 -1 0
-0.02436885 -0.02549327 -1 0
-0.02560887 -0.02424758 -1 0
-0.0268862 -0.02283772 -1 0
0.02551445 -0.02434349 -1 0
0.02423753 -0.02561978 -1 0
0.02065752 -0.02858171 -1 0
0.02262109 -0.02700918 -1 0
0.0267494 -0.02293417 -1 0
0.02829311 -0.02103349 -1 0
0.0297919 -0.01886511 -1 0
-0.02846784 -0.02077667 -1 0
-0.02099943 -0.02830865 -1 0
-0.0300025 -0.01852138 -1 0
-0.0283326 0.02098257 -1 0
-0.02979087 0.01879697 -1 0
-0.02075212 0.0285006 -1 0
-0.0185303 0.02999113 -1 0
0.02686065 0.0228181 -1 0
0.02841708 0.02087212 -1 0
0.02999188 0.0185508 -1 0
0.02109045 0.02826052 -1 0
0.02291767 0.02679033 -1 0
0.01887022 0.02975265 -1 0
0.03309298 0.01210508 -1 0
0.03384625 -0.009903759 -1 0
0.03519192 -0.002322944 -1 0
0.03527541 -0.0004234167 -1 0
0.03376546 0.01007143 -1 0
0.0343839 0.007836408 -1 0
0.02430858 0.02555589 -1 0
0.02560075 0.02427103 -1 0
0.009714139 0.03383284 -1 0
0.006827754 0.03456294 -1 0
0.00413525 0.03497898 -1 0
0.03114933 0.01654559 -1 0
-0.003685928 0.03504953 -1 0
-0.005535806 0.03483707 -1 0
-0.007755677 0.03440117 -1 0
-0.01172692 0.03324642 -1 0
-0.009957393 0.0338213 -1 0
-0.03398536 0.009365081 -1 0
-0.03324753 -0.0117745 -1 0
-0.03379531 -0.01007073 -1 0
-0.009822339 -0.03385966 -1 0
-0.01190194 -0.03317801 -1 0
-0.001573487 -0.03522901 -1 0
0.001267752 -0.03523864 -1 0
0.007776676 -0.03439568 -1 0
0.009669173 -0.03389755 -1 0
0.01180017 -0.03322866 -1 0
0.01856054 -0.02998055 -1 0
0.01665184 -0.03109779 -1 0
-0.01882342 -0.02979921 -1 0
-0.01693055 -0.03091587 -1 0
0.006560826 -0.03467064 -1 0
-0.003792497 -0.03505365 -1 0
-0.03111127 -0.01664671 -1 0
-0.03104945 0.01664575 -1 0
-0.01656134 0.03115014 -1 0
0.0168601 0.03093516 -1 0
0.001190737 0.03523485 -1 0
-0.001519954 0.03523679 -1 0
-0.03517881 0.00173906 -1 0
-0.03522804 -0.001389475 -1 0
0.01486842 0.03197431 -1 0
0.03217115 0.01445764 -1 0
-0.01338461 0.03265927 -1 0
-0.0148673 0.03201442 -1 0
-0.03213113 0.0144867 -1 0
-0.03263776 -0.01337041 -1 0
-0.03196373 -0.01495969 -1 0
0.03225753 -0.01417891 -1 0
0.03293147 -0.01269471 -1 0
0.01502282 -0.03193662 -1 0
0.01354945 -0.03258385 -1 0
-0.01362687 -0.03255229 -1 0
-0.01517253 -0.03186008 -1 0
-0.0327917 0.01299874 -1 0
0.003826261 -0.03507128 -1 0
0.005985416 -0.03808508 -1 0
-0.006367334 -0.03799073 -1 0
-0.008504857 -0.03759723 -1 0
0.03406491 -0.01792471 -1 0
0.03652119 -0.01231714 -1 0
-0.03641004 0.01259694 -1 0
-0.03792682 -0.006784432 -1 0
-0.03826378 -0.004514675 -1 0
-0.03749903 -0.008889117 -1 0
-0.03814426 0.005267633 -1 0
-0.03769167 0.008031923 -1 0
0.01448916 0.03570682 -1 0
0.01318727 0.03620591 -1 0
0.03817314 0.005232632 -1 0
0.03848708 0.002061392 -1 0
0.03797272 -0.006682535 -1 0
0.03825659 -0.004665464 -1 0
0.03752315 -0.008705305 -1 0
-0.02935347 0.02494097 -1 0
-0.02795521 0.02655066 -1 0
-0.02648385 0.02799051 -1 0
-0.02487642 0.02939911 -1 0
-0.02502468 -0.0292796 -1 0
-0.02657838 -0.02792622 -1 0
-0.02795279 -0.02655204 -1 0
-0.0293557 -0.02495063 -1 0
0.02789469 -0.02660669 -1 0
0.02650604 -0.02797828 -1 0
0.02257223 -0.03122262 -1 0
0.02477923 -0.02948345 -1 0
0.02923062 -0.02511147 -1 0
0.03089802 -0.02301536 -1 0
0.03257046 -0.02056893 -1 0
-0.0311383 -0.02267633 -1 0
-0.02292484 -0.03095186 -1 0
-0.03280944 -0.02021712 -1 0
-0.03098629 0.02289665 -1 0
-0.03257313 0.02053542 -1 0
-0.02272299 0.03110722 -1 0
-0.02026583 0.03277929 -1 0
0.0293564 0.02496778 -1 0
0.03105631 0.02279639 -1 0
0.03279253 0.02021862 -1 0
0.0229919 0.03091096 -1 0
0.02503633 0.0292939 -1 0
0.02057176 0.03254894 -1 0
0.03621774 0.01311657 -1 0
0.03700616 -0.01065919 -1 0
0.03845287 -0.002515046 -1 0
0.03853175 -0.0004187825 -1 0
0.03692175 0.01100329 -1 0
0.03758328 0.008543899 -1 0
0.02656801 0.02794117 -1 0
0.02797024 0.02651777 -1 0
0.01062004 0.03698392 -1 0
0.007403594 0.03778997 -1 0
0.004519167 0.03823721 -1 0
0.03404877 0.01805418 -1 0
-0.004002248 0.03831726 -1 0
-0.006023567 0.03807113 -1 0
-0.008521184 0.03757518 -1 0
-0.01287402 0.03632665 -1 0
-0.01096317 0.03694258 -1 0
-0.03713784 0.01025793 -1 0
-0.03633692 -0.01287425 -1 0
-0.03691464 -0.01098925 -1 0
-0.01079189 -0.03698306 -1 0
-0.0130266 -0.03626946 -1 0
-0.001790669 -0.03849343 -1 0
0.001385098 -0.03850848 -1 0
0.008517348 -0.037601 -1 0
0.01062089 -0.03702836 -1 0
0.01295081 -0.0362958 -1 0
0.02024552 -0.03277605 -1 0
0.0182174 -0.03398196 -1 0
-0.02055145 -0.03258878 -1 0
-0.01848489 -0.03380475 -1 0
0.007175457 -0.03786466 -1 0
-0.004251568 -0.03828346 -1 0
-0.03399936 -0.01818347 -1 0
-0.03389726 0.01826337 -1 0
-0.01813927 0.0340186 -1 0
0.0184583 0.03380362 -1 0
0.00135566 0.03849807 -1 0
-0.00164517 0.03850065 -1 0
-0.03847331 0.001902486 -1 0
-0.03848824 -0.001496898 -1 0
0.01626293 0.03492835 -1 0
0.03518854 0.01571369 -1 0
-0.01465606 0.03566443 -1 0
-0.0162889 0.03495923 -1 0
-0.03510133 0.01590087 -1 0
-0.03567633 -0.01462256 -1 0
-0.03493639 -0.01633517 -1 0
0.03529905 -0.01543233 -1 0
0.03598445 -0.01380192 -1 0
0.01644668 -0.03488668 -1 0
0.01484258 -0.03559728 -1 0
-0.01483213 -0.03559801 -1 0
-0.0165431 -0.03483997 -1 0
-0.0358176 0.01424444 -1 0
0.004215229 -0.03830617 -1 0
0.006396027 -0.04077244 -1 0
-0.006821283 -0.04069937 -1 0
-0.009086009 -0.04025845 -1 0
0.03650671 -0.01911701 -1 0
0.03913348 -0.01312065 -1 0
-0.03896618 0.01353099 -1 0
-0.04063186 -0.007229269 -1 0
-0.04098275 -0.004811393 -1 0
-0.04015718 -0.009500037 -1 0
-0.04085805 0.005648654 -1 0
-0.04035528 0.008595352 -1 0
0.01555502 0.03822486 -1 0
0.0142091 0.03873851 -1 0
0.04088512 0.005572671 -1 0
0.04121489 0.002254558 -1 0
0.04064679 -0.007176831 -1 0
0.04095668 -0.004975988 -1 0
0.04018622 -0.009333618 -1 0
-0.03137644 0.02679928 -1 0
-0.02987122 0.02846377 -1 0
-0.02835397 0.02999762 -1 0
-0.02668405 0.03146309 -1 0
-0.0268364 -0.03134447 -1 0
-0.02846071 -0.02989222 -1 0
-0.02994931 -0.02840829 -1 0
-0.03143957 -0.02670322 -1 0
0.02986936 -0.02849149 -1 0
0.02840387 -0.02994848 -1 0
0.02417882 -0.03342985 -1 0
0.02658427 -0.0315328 -1 0
0.03128345 -0.02690156 -1 0
0.03308261 -0.02464877 -1 0
0.03490901 -0.02197679 -1 0
-0.03335286 -0.02427551 -1 0
-0.02460251 -0.03312 -1 0
-0.03515381 -0.02162287 -1 0
-0.03313121 0.0245844 -1 0
-0.03486171 0.02205365 -1 0
-0.02435848 0.03329317 -1 0
-0.02170382 0.03508691 -1 0
0.03144346 0.02673394 -1 0
0.03329756 0.02435303 -1 0
0.03514131 0.02161301 -1 0
0.02460412 0.0331174 -1 0
0.02683331 0.03135317 -1 0
0.0220338 0.03485965 -1 0
0.03881516 0.01399062 -1 0
0.03967265 -0.01133814 -1 0
0.04119866 -0.00263204 -1 0
0.04126208 -0.0003645484 -1 0
0.03953042 0.01180895 -1 0
0.04024319 0.009140385 -1 0
0.02847091 0.02988111 -1 0
0.02995574 0.02839561 -1 0
0.01139297 0.03960468 -1 0
0.007882499 0.04046491 -1 0
0.004865039 0.04095622 -1 0
0.03645596 0.01936256 -1 0
-0.004262233 0.04103806 -1 0
-0.006443246 0.04076539 -1 0
-0.009168384 0.0402269 -1 0
-0.01383418 0.03888131 -1 0
-0.01180055 0.0395444 -1 0
-0.03975046 0.0110199 -1 0
-0.03890613 -0.01378217 -1 0
-0.03954965 -0.01175842 -1 0
-0.01152965 -0.03960194 -1 0
-0.01390111 -0.03886691 -1 0
-0.001925476 -0.04121326 -1 0
0.001525813 -0.04123116 -1 0
0.009059442 -0.04025796 -1 0
0.01135793 -0.03966 -1 0
0.01388531 -0.03886931 -1 0
0.02166562 -0.0351243 -1 0
0.0195387 -0.0363686 -1 0
-0.02202219 -0.03487984 -1 0
-0.01980311 -0.03619472 -1 0
0.007638927 -0.04058058 -1 0
-0.004583191 -0.04100004 -1 0
-0.03640932 -0.01946074 -1 0
-0.03625087 0.01965724 -1 0
-0.01947991 0.03640457 -1 0
0.01983633 0.03617466 -1 0
0.001522784 0.04122333 -1 0
-0.001718135 0.04123781 -1 0
-0.04120248 0.001991619 -1 0
-0.04121663 -0.001652639 -1 0
0.01745352 0.0373813 -1 0
0.03768805 0.01679883 -1 0
-0.01574969 0.03818446 -1 0
-0.01749902 0.03740526 -1 0
-0.03757235 0.01706332 -1 0
-0.03819769 -0.01566113 -1 0
-0.03741196 -0.01748127 -1 0
0.03785597 -0.01643656 -1 0
0.03854767 -0.01470041 -1 0
0.01765593 -0.03733273 -1 0
0.01592816 -0.03811329 -1 0
-0.01582109 -0.03815558 -1 0
-0.01768674 -0.03731393 -1 0
-0.03835067 0.01523363 -1 0
0.004556125 -0.04101621 -1 0
0.006770202 -0.04302109 -1 0
-0.007222177 -0.0429467 -1 0
-0.009589109 -0.04247073 -1 0
0.03850801 -0.02019308 -1 0
0.0412734 -0.01389247 -1 0
-0.04110866 0.014341 -1 0
-0.0428812 -0.00757078 -1 0
-0.04324663 -0.005023897 -1 0
-0.04237777 -0.009998104 -1 0
-0.0431098 0.006015516 -1 0
-0.04256474 0.009128666 -1 0
0.01640229 0.04033634 -1 0
0.01507403 0.04084753 -1 0
0.04315077 0.00583899 -1 0
0.04348471 0.002424573 -1 0
0.04287388 -0.00759711 -1 0
0.04321509 -0.005296433 -1 0
0.04241165 -0.00984015 -1 0
-0.03303542 0.02836327 -1 0
-0.03148552 0.03009168 -1 0
-0.02991955 0.03164701 -1 0
-0.02819384 0.03317206 -1 0
-0.02838592 -0.03302548 -1 0
-0.03009281 -0.03148529 -1 0
-0.03163447 -0.02993373 -1 0
-0.03320891 -0.02816197 -1 0
0.03149938 -0.03008258 -1 0
0.02996852 -0.03160739 -1 0
0.02553765 -0.03524959 -1 0
0.02809353 -0.03323795 -1 0
0.03298751 -0.02843042 -1 0
0.03489613 -0.02602784 -1 0
0.03685553 -0.02315113 -1 0
-0.03521922 -0.02557326 -1 0
-0.02596241 -0.03494581 -1 0
-0.03710397 -0.02278648 -1 0
-0.03493853 0.02597651 -1 0
-0.03677607 0.0232658 -1 0
-0.02570691 0.03512701 -1 0
-0.02289163 0.03704496 -1 0
0.03314738 0.02823697 -1 0
0.03515948 0.02566729 -1 0
0.03709434 0.02279536 -1 0
0.02590507 0.03498548 -1 0
0.02829849 0.03308615 -1 0
0.02322591 0.03679777 -1 0
0.04097013 0.01472628 -1 0
0.04187738 -0.01193175 -1 0
0.04346473 -0.002750521 -1 0
0.04354157 -0.0002950801 -1 0
0.04172643 0.01248095 -1 0
0.042465 0.009605607 -1 0
0.03003161 0.03154926 -1 0
0.03157014 0.03000782 -1 0
0.0120386 0.04178596 -1 0
0.008307565 0.04270779 -1 0
0.005190139 0.04321884 -1 0
0.03844023 0.02048215 -1 0
-0.004485651 0.04329846 -1 0
-0.006795869 0.04301548 -1 0
-0.009734757 0.042434 -1 0
-0.01464364 0.04101481 -1 0
-0.01251815 0.04170412 -1 0
-0.04193295 0.01168194 -1 0
-0.0410436 -0.0145622 -1 0
-0.04173012 -0.0124045 -1 0
-0.01210525 -0.04181391 -1 0
-0.01459305 -0.04103592 -1 0
-0.002056179 -0.04348782 -1 0
0.001645215 -0.04350322 -1 0
0.009497874 -0.04250525 -1 0
0.01194757 -0.04185474 -1 0
0.01465855 -0.04100686 -1 0
0.02286096 -0.03705993 -1 0
0.02066716 -0.03835258 -1 0
-0.02320365 -0.03681991 -1 0
-0.02089916 -0.0381879 -1 0
0.008019151 -0.04281347 -1 0
-0.0048532 -0.04324894 -1 0
-0.03840827 -0.02055721 -1 0
-0.03823025 0.02078574 -1 0
-0.02059683 0.03838308 -1 0
0.02097125 0.03815083 -1 0
0.001653152 0.04349751 -1 0
-0.001792754 0.04350669 -1 0
-0.04347466 0.00204753 -1 0
-0.04350221 -0.001776542 -1 0
0.01840258 0.03945288 -1 0
0.03976926 0.01771996 -1 0
-0.01667036 0.04026061 -1 0
-0.01852945 0.03943782 -1 0
-0.03962434 0.01801634 -1 0
-0.0403045 -0.01654649 -1 0
-0.0394703 -0.01845989 -1 0
0.03992125 -0.01739301 -1 0
0.04067308 -0.01556706 -1 0
0.0186895 -0.03936538 -1 0
0.01684168 -0.04019095 -1 0
-0.01663071 -0.0402806 -1 0
-0.01864346 -0.03938048 -1 0
-0.04048916 0.01607776 -1 0
0.004885117 -0.04327846 -1 0
0.007088867 -0.04489875 -1 0
-0.007523935 -0.04482323 -1 0
-0.0100319 -0.04432793 -1 0
0.0401616 -0.02113959 -1 0
0.04303895 -0.01457892 -1 0
-0.0428619 0.01505629 -1 0
-0.04476162 -0.007844901 -1 0
-0.04513744 -0.005209092 -1 0
-0.0442308 -0.01040829 -1 0
-0.04497039 0.006383761 -1 0
-0.0444097 0.009628382 -1 0
0.01702059 0.04214066 -1 0
0.01575075 0.04262593 -1 0
0.04504576 0.006032077 -1 0
0.04537688 0.002554451 -1 0
0.04474532 -0.007955484 -1 0
0.04510385 -0.005533223 -1 0
0.04426316 -0.01023749 -1 0
-0.03446045 0.02961572 -1 0
-0.0328626 0.03139785 -1 0
-0.03126678 0.03298593 -1 0
-0.02949829 0.03456545 -1 0
-0.0296271 -0.03445004 -1 0
-0.03140818 -0.03285372 -1 0
-0.03298036 -0.03127209 -1 0
-0.03462577 -0.02942065 -1 0
0.03286576 -0.03140087 -1 0
0.03126748 -0.03299149 -1 0
0.026643 -0.03679154 -1 0
0.02933699 -0.03468696 -1 0
0.03442275 -0.02966982 -1 0
0.03644622 -0.02712016 -1 0
0.03850367 -0.0240889 -1 0
-0.03677288 -0.02667061 -1 0