# p  FACE_DATA 1436
# x  y  z  p
-0.01592896667 -0.01653226667 -1 2105.864803
0.01657313333 0.0160208 -1 2102.865471
-0.01359063333 0.0128176 -1 2114.422411
-0.01482033333 0.01432873333 -1 2103.707572
0.01211303667 0.01419776667 -1 2109.144135
0.01388393333 0.0126157 -1 2129.82439
0.001551908 0.00029166 -1 2143.250695
-0.0007156886667 -0.00105012 -1 2111.706985
-0.008560706667 -0.0216334 -1 2112.348306
0.003726083333 -0.02337806667 -1 2102.21391
-0.001686294667 -0.02345993333 -1 2105.558021
-0.02261056667 -0.006060163333 -1 2109.266921
-0.02299816667 -0.004418926667 -1 2105.126339
-0.02246676667 0.005203306667 -1 2100.525414
-0.02320146667 0.00279448 -1 2118.649608
-0.00498936 0.0229274 -1 2107.304848
-0.003743463333 0.02230256667 -1 2113.144177
0.004729936667 0.02282936667 -1 2104.034046
-0.0003052272667 0.02244516667 -1 2106.334369
0.0008993827333 0.0232875 -1 2104.945269
0.0033239 0.02235963333 -1 2097.635367
0.00805101 0.02213043333 -1 2104.384843
-0.003047013333 0.02294196667 -1 2113.52701
0.02315596667 0.001468849 -1 2113.765233
-0.006040296667 -0.01846966667 -1 2125.451982
-0.008658103333 -0.02018026667 -1 2123.956249
-0.01128343 -0.01875673333 -1 2122.564375
-0.01064229667 -0.0168819 -1 2091.714092
-0.008939163333 -0.016511 -1 2111.256444
-0.002640472 -0.0196662 -1 2113.143783
-0.001521776667 -0.02118863333 -1 2099.151896
-0.0007416493667 -0.0235195 -1 2114.958127
-0.002363281333 -0.02268506667 -1 2105.849524
-0.005385393333 -0.02187766667 -1 2108.210931
-0.01372963333 -0.01867993333 -1 2110.781291
-0.01551826667 -0.01773573333 -1 2106.229935
-0.01233753333 -0.01583263333 -1 2119.58603
-0.01393723333 -0.01649033333 -1 2109.55837
-0.0165166 -0.016559 -1 2106.82599
-0.01530713333 -0.01555403333 -1 2114.422919
-0.01255346667 -0.01380173333 -1 2143.059216
-0.01466716667 -0.0130684 -1 2108.453547
-0.01582113333 -0.014163 -1 2102.659391
-0.006241333333 -0.01460193333 -1 2137.33894
-0.008293616667 -0.01477683333 -1 2118.609112
-0.01107326 -0.01256973333 -1 2108.259819
-0.008040483333 -0.01088154 -1 2096.936953
-0.009153743333 -0.01293456667 -1 2125.847722
-0.01489666667 -0.01103637333 -1 2104.094166
-0.01666883333 -0.01048500667 -1 2113.42993
-0.009315633333 -0.00919478 -1 2122.55819
-0.01128879333 -0.01015660667 -1 2105.545071
-0.0129985 -0.00935658 -1 2134.371673
-0.01331833333 -0.007017463333 -1 2139.684588
-0.01715733333 -0.008150286667 -1 2104.826703
-0.015705 -0.006362536667 -1 2111.920454
-0.02332943333 0.001398023333 -1 2113.952691
-0.02321333333 -0.002317283333 -1 2106.118458
-0.0233015 -0.001052146667 -1 2114.65533
-0.022495 -0.00328184 -1 2106.573021
-0.02207146667 0.003993153333 -1 2097.887647
-0.02270326667 0.00026796 -1 2120.365487
-0.02108106667 -0.00289455 -1 2103.020357
-0.01981813333 -0.00435292 -1 2135.70327
0.01496203333 -0.002770838667 -1 2145.710407
0.01880986667 -0.00754393 -1 2131.321364
0.01756106667 -0.006321716667 -1 2149.770015
0.01862416667 -0.009368483333 -1 2121.330889
0.02011306667 -0.01006252333 -1 2113.538187
0.0168075 -0.01083792667 -1 2123.583345
0.0203416 -0.01137893333 -1 2126.81729
0.02301863333 0.002832003333 -1 2134.694272
0.02222336667 0.003871473333 -1 2129.681564
0.01717916667 -0.002487185333 -1 2116.336947
0.01834126667 -0.004197446667 -1 2094.122437
0.01978043333 0.0002927566667 -1 2111.918126
0.01789906667 -0.000560062 -1 2136.925337
0.02349526667 -0.001601916 -1 2104.139513
0.02120653333 -0.0006361033333 -1 2099.280133
0.02273233333 0.0001634756667 -1 2108.215351
0.0235328 -0.0007296303333 -1 2106.984738
0.022801 -0.003308676667 -1 2104.647028
0.020302 -0.004192863333 -1 2134.088673
0.02137396667 -0.00275453 -1 2104.285653
0.01875806667 -0.01301643333 -1 2099.466787
0.01698396667 -0.01274003333 -1 2115.477012
0.01668933333 -0.01551156667 -1 2100.871074
0.01561256667 -0.01435653333 -1 2099.352917
0.01645603333 -0.01647973333 -1 2101.097809
0.01379646667 -0.01512173333 -1 2103.452769
0.01095759333 -0.01844986667 -1 2100.03495
0.0123613 -0.01864116667 -1 2106.052124
0.0134755 -0.0183751 -1 2107.335399
0.0152862 -0.006901776667 -1 2104.685997
0.01384926667 -0.00506116 -1 2129.213149
0.01471833333 -0.009593433333 -1 2106.348386
0.0123352 -0.01378586667 -1 2108.701409
0.01028757 -0.00951642 -1 2134.781922
0.01247926667 -0.01086707333 -1 2136.90904
0.00986414 -0.01715226667 -1 2114.6348
0.01022911333 -0.0148173 -1 2130.908519
0.00821159 -0.01105531333 -1 2102.784378
0.0082972 -0.0134374 -1 2105.346148
0.006265606667 -0.01450466667 -1 2128.243997
0.004687583333 -0.01335726667 -1 2102.184572
0.00624855 -0.01661663333 -1 2113.685375
0.00791517 -0.01788433333 -1 2101.735512
0.00457589 -0.0176349 -1 2102.760123
0.001719268 -0.02001463333 -1 2106.364809
0.0004626566667 -0.02127856667 -1 2120.900052
0.001390178633 -0.0232679 -1 2095.400442
0.003199173333 -0.0227858 -1 2110.718466
0.0005657973 -0.02283456667 -1 2101.210983
0.00487693 -0.01960023333 -1 2081.24396
0.003568583333 -0.02068953333 -1 2125.563144
-0.001880585333 -0.0177058 -1 2093.40135
-0.003172333333 -0.0160694 -1 2112.025778
-0.002349483333 -0.01419343333 -1 2095.571144
-0.0005302333333 -0.01400073333 -1 2121.869074
0.002967696667 -0.0138721 -1 2119.653075
0.00291957 -0.0169554 -1 2101.147714
0.0004186466667 -0.01538533333 -1 2096.299704
0.001371294667 -0.01824583333 -1 2100.629748
-0.0001088553333 -0.01721443333 -1 2101.88783
0.002269483333 -0.0152879 -1 2094.257719
-0.00161266 0.01355823333 -1 2107.335039
0.02069983333 0.00378931 -1 2104.564633
0.01964536667 0.002373326667 -1 2111.784728
0.01145931 -0.00502932 -1 2099.272296
0.009841946667 -0.006939323333 -1 2128.529649
0.01389926667 -0.0009581926667 -1 2121.923813
0.014952 0.0009265173333 -1 2096.711033
0.01673466667 0.001040994667 -1 2107.883102
0.0004044566667 -0.005242376667 -1 2105.667959
-0.001054623333 -0.003604986667 -1 2127.146284
0.004662493333 -0.01135441667 -1 2093.16664
0.006154906667 -0.01011973 -1 2131.463695
0.00226098 -0.009115306667 -1 2099.437338
0.002929886667 -0.01081881667 -1 2116.198921
0.00028711 -0.0123142 -1 2107.541628
0.001934203333 -0.012283 -1 2126.064331
0.01187578667 -0.0009089336667 -1 2093.077073
0.01054859667 -0.002689739667 -1 2123.309548
0.01116812 0.0008222796667 -1 2123.272647
0.00940542 0.001211087 -1 2100.308241
0.009375046667 0.003102186667 -1 2114.99172
0.00790402 -9.6143e-05 -1 2105.470808
0.0059032 0.0006913966667 -1 2118.028694
0.003851203333 -0.00087836 -1 2140.050388
0.00833953 -0.002265756333 -1 2103.314485
-0.005257603333 -0.01267916667 -1 2097.6001
-0.006196626667 -0.01080104 -1 2103.483464
-0.003348056667 -0.01257096667 -1 2119.455552
-0.005110013333 -0.009207193333 -1 2095.391977
0.0003536266667 -0.00900402 -1 2105.60353
-0.00062645 -0.00737246 -1 2110.784987
-0.002440476667 -0.01080279667 -1 2096.244346
-0.00242757 -0.007621523333 -1 2089.319836
-0.00326341 -0.00931715 -1 2113.481434
-0.00062456 -0.01073873 -1 2124.27258
-0.004851666667 -0.001367041667 -1 2107.598278
-0.002887855333 0.000132795 -1 2140.714949
-0.003153502 0.002211918333 -1 2120.417746
-0.01172206667 -0.005270406667 -1 2091.294545
-0.008717683333 -0.00735423 -1 2107.051901
-0.009745343333 -0.005586706667 -1 2127.639795
-0.00827595 -0.00389521 -1 2115.905018
-0.005136056667 0.00488452 -1 2096.894484
-0.005198543333 0.002852951667 -1 2112.403082
-0.008501503333 -0.00193893 -1 2096.321073
-0.0067685 -0.0005034116667 -1 2113.634559
-0.00684973 0.001637458333 -1 2160.478418
-0.0201527 -0.0008378133333 -1 2113.521368
-0.02103766667 0.0006452366667 -1 2145.066297
-0.01879823333 0.004025293333 -1 2099.187074
-0.02053383333 0.002973973333 -1 2095.040528
-0.01694366667 0.002885116667 -1 2131.512643
-0.01045813 -0.001265709333 -1 2101.786216
-0.0122093 -0.002905689333 -1 2105.594994
-0.01801696667 -0.003282936667 -1 2104.988127
-0.01460493333 -1.568266667e-05 -1 2143.800368
-0.0182706 -0.0009383466667 -1 2106.767822
-0.016758 0.0006191166667 -1 2132.119594
-0.01617736667 -0.00401014 -1 2131.058448
-0.01427793333 -0.002300349333 -1 2104.924173
0.00531689 0.0195265 -1 2100.705159
0.0016994 0.0133476 -1 2103.165896
1.231333333e-05 0.0144302 -1 2117.799258
0.00759376 0.0165977 -1 2125.644324
0.00359044 0.0143401 -1 2146.16774
0.003608116667 0.01645466667 -1 2122.549781
0.005423266667 0.01752133333 -1 2107.121711
0.009174916667 0.0175885 -1 2131.003425
0.006951133333 0.0204055 -1 2117.633112
0.006017013333 0.02250693333 -1 2103.210805
0.009375453333 0.02161723333 -1 2104.065773
0.009813053333 0.02033233333 -1 2106.340909
-0.004147476667 0.02093773333 -1 2110.458753
0.0033031 0.02063323333 -1 2101.822563
0.002109943333 0.02319 -1 2106.645154
-0.001216793933 0.02311783333 -1 2105.479762
-0.002165013333 0.02304723333 -1 2117.187125
-0.0003137876667 0.02059146667 -1 2111.594813
1.406566667e-05 0.0164327 -1 2129.663224
0.001718829 0.01746466667 -1 2100.939583
0.001520189 0.01963806667 -1 2103.869136
-0.001710537667 0.01930336667 -1 2105.753828
-0.003473516667 0.0196642 -1 2114.518819
-0.001581324333 0.017318 -1 2095.888111
0.0186613 0.01409076667 -1 2110.530982
0.01797213333 0.0149675 -1 2103.366931
0.014122 0.01726563333 -1 2105.145682
0.01237703667 0.01633843333 -1 2113.326914
0.01265513333 0.01953446667 -1 2124.153309
0.01675866667 0.01492393333 -1 2102.812033
0.0159405 0.0132312 -1 2104.181683
0.01605803333 0.0165406 -1 2104.168177
0.0115347 0.0190973 -1 2117.676483
0.01545686667 0.01708663333 -1 2104.339106
0.01083443667 0.0174526 -1 2123.639837
0.01369983333 0.01881696667 -1 2126.067088
0.01113561333 0.003860196667 -1 2102.04346
0.01221476667 0.002462292667 -1 2097.807738
0.01397516667 0.002615789333 -1 2106.366533
0.0177626 0.002704026667 -1 2107.099899
0.005435856667 0.01322363333 -1 2105.375762
0.007624026667 0.01441456667 -1 2124.788037
0.00957865 0.01319953333 -1 2140.619911
0.00519824 0.01100212 -1 2103.281345
0.009131983333 0.01076049 -1 2128.822277
0.006939743333 0.00975401 -1 2132.450752
0.01082733667 0.00937291 -1 2116.418012
0.0130449 0.01022988667 -1 2150.933406
0.01027651667 0.007121816667 -1 2135.72772
0.01172448 0.00572748 -1 2096.004355
0.001484606667 0.01125236667 -1 2098.218109
0.00313803 0.01002335333 -1 2141.511921
-0.00185089 0.01164496667 -1 2119.343022
-0.00044071 0.0104217 -1 2115.565999
-0.001948985333 0.003991143333 -1 2104.572543
-0.00084906 0.00833136 -1 2102.076277
-0.003285566667 0.00567432 -1 2110.93997
-0.00281964 0.00760123 -1 2103.326036
0.00070818 0.00692316 -1 2140.918607
7.418133333e-05 0.004509853333 -1 2142.825753
0.001806928 0.003023006667 -1 2138.932746
0.002769953333 0.007784486667 -1 2102.575449
0.0139393 0.00633644 -1 2124.020349
0.01511083333 0.004622653333 -1 2089.90065
0.0147089 0.008587753333 -1 2094.137566
0.0171156 0.004596413333 -1 2121.133249
0.020235 0.005640163333 -1 2114.581258
0.01853353333 0.006116566667 -1 2157.772886
0.0169735 0.0094678 -1 2108.205643
0.01859726667 0.008230886667 -1 2105.505319
0.0188734 0.01254143333 -1 2109.092529
0.02166263333 0.00810798 -1 2117.064047
0.02049576667 0.01107403333 -1 2114.845469
0.02049373333 0.00904946 -1 2117.956837
0.01736606667 0.01172543333 -1 2111.663969
0.02200646667 0.00712847 -1 2109.042833
-0.004384243333 0.009150303333 -1 2149.431892
-0.003823843333 0.0111037 -1 2117.214523
-0.003324166667 0.01635176667 -1 2137.850493
-0.00668175 0.01794023333 -1 2108.179545
-0.004580703333 0.01771476667 -1 2104.607271
-0.00335375 0.0145945 -1 2110.919635
-0.004822013333 0.0130529 -1 2128.602721
-0.006840893333 0.0133211 -1 2131.667729
-0.01038063 0.01588596667 -1 2121.734767
-0.01135782333 0.01335393333 -1 2126.800382
-0.007929383333 0.0159605 -1 2125.790784
-0.01141897333 0.01752526667 -1 2107.736774
-0.0162952 0.01683946667 -1 2111.501126
-0.01525533333 0.01697493333 -1 2118.108949
-0.01246923333 0.019786 -1 2115.974257
-0.01072749667 0.001121180667 -1 2086.902789
-0.0088521 0.00258883 -1 2128.689132
-0.01280566667 0.001765867333 -1 2113.609641
-0.0152265 0.00424537 -1 2101.054343
-0.01324156667 0.00376092 -1 2111.419619
-0.008201263333 0.0114885 -1 2109.635417
-0.01026694667 0.01159586667 -1 2108.795191
-0.006639943333 0.00595886 -1 2146.137436
-0.0087048 0.004878663333 -1 2101.317064
-0.007905136667 0.009339396667 -1 2124.590426
-0.006354056667 0.008297733333 -1 2124.506265
-0.01211686667 0.005560986667 -1 2115.220363
-0.01107159 0.009601683333 -1 2134.329331
-0.009745686667 0.00827008 -1 2103.561175
-0.01025946333 0.00614822 -1 2150.404786
-0.01337553333 0.00709002 -1 2118.543344
-0.01284403333 0.009008856667 -1 2120.554048
-0.0142722 0.01046670667 -1 2105.429517
-0.0151622 0.00626686 -1 2106.151437
-0.01643266667 0.009325663333 -1 2114.953767
-0.01871003333 0.00616334 -1 2096.175694
-0.01679116667 0.007044653333 -1 2107.359431
-0.0179603 0.01030389 -1 2107.555838
-0.016343 0.0137329 -1 2112.084571
-0.01884316667 0.01269446667 -1 2107.705234
0.008638666667 0.01939113333 -1 2112.709808
0.01104956667 0.0201744 -1 2105.41417
0.02091826667 0.01019064 -1 2111.717147
0.0199548 0.01198576667 -1 2104.700348
-0.005921903333 0.02270116667 -1 2109.015442
-0.00731551 0.0198184 -1 2126.633102
-0.005888423333 0.02086646667 -1 2100.577722
-0.006416953333 0.02200506667 -1 2108.483987
-0.01114254 0.019377 -1 2101.024472
-0.009742493333 0.0208073 -1 2103.76297
-0.01056560667 0.02039946667 -1 2106.067679
-0.01415643333 0.01613176667 -1 2107.571843
-0.01691153333 0.01622546667 -1 2112.136663
-0.0131311 0.01862283333 -1 2107.775354
-0.00745474 0.02223253333 -1 2108.39414
-0.008647073333 0.02067636667 -1 2095.630812
-0.008257773333 0.0219519 -1 2105.41674
-0.02062966667 0.01020365667 -1 2108.897315
-0.0200076 0.01218186667 -1 2114.279332
-0.0200558 0.007462906667 -1 2107.38617
-0.02198623333 0.00693933 -1 2110.048424
-0.01966456667 0.009322446667 -1 2111.970475
-0.02188006667 0.008824603333 -1 2108.878137
-0.02056316667 0.01119113333 -1 2109.899504
-0.02158 0.009515293333 -1 2109.441338
-0.01425923333 -0.01773866667 -1 2107.636013
-0.01084256333 -0.0199438 -1 2116.362218
-0.004504563333 -0.02284223333 -1 2107.642472
-0.003580836667 -0.02301086667 -1 2104.509548
-0.007605313333 -0.02198253333 -1 2110.021183
-0.00777254 -0.01843606667 -1 2102.846915
-0.01920386667 -0.007800873333 -1 2123.210334
-0.020356 -0.006087533333 -1 2119.244619
-0.02189976667 -0.006600163333 -1 2110.627799
-0.01727063333 -0.0142765 -1 2112.563161
-0.01835243333 -0.0119934 -1 2104.564658
-0.02044916667 -0.00913407 -1 2120.88426
-0.01705166667 -0.01602383333 -1 2112.813353
-0.017595 -0.01541143333 -1 2112.80286
-0.01845103333 -0.013708 -1 2114.029687
-0.02183756667 -0.008597846667 -1 2108.878063
-0.0197076 -0.01174066667 -1 2107.204919
-0.0205738 -0.01017324333 -1 2116.582453
0.0202657 -0.007015363333 -1 2148.618034
0.02225806667 -0.00750208 -1 2118.704828
0.02097763333 -0.005788566667 -1 2091.971752
0.0224772 -0.006806 -1 2113.065799
0.02152273333 -0.008612823333 -1 2123.945074
0.0179744 -0.01514813333 -1 2100.703053
0.015886 -0.0170437 -1 2101.225724
0.01867173333 -0.0142695 -1 2101.242107
0.0197642 -0.01238133333 -1 2103.268746
0.02129063333 -0.007822943333 -1 2141.146817
0.0212074 -0.00933083 -1 2103.800866
0.00593675 -0.0225258 -1 2105.351463
0.00782603 -0.0221214 -1 2105.082009
0.00776417 -0.019654 -1 2104.398333
0.00639859 -0.02035163333 -1 2110.760602
0.0066552 -0.021777 -1 2107.004366
0.01046142667 -0.020145 -1 2106.416756
0.00887399 -0.02078086667 -1 2104.548447
0.00867924 -0.0218229 -1 2104.296637
0.01134866667 -0.0206751 -1 2101.862459
0.009857876667 -0.02092216667 -1 2105.04267
0.0151818 -0.01765643333 -1 2099.547545
0.01389803333 -0.0171847 -1 2108.174967
0.01228413333 -0.02011256667 -1 2103.942959
-0.02019516667 -0.01092203333 -1 2112.600777
-0.02213603333 -0.00777728 -1 2110.665329
-0.01497173333 0.01797233333 -1 2113.78151
-0.01862206667 0.01398463333 -1 2116.011556
-0.0170089 0.01507653333 -1 2108.804083
0.008200073333 0.00623519 -1 2102.943726
0.004120046667 0.004140873333 -1 2160.719666
0.00788747 0.004082843333 -1 2104.122515
0.006558653333 0.007479803333 -1 2136.149731
0.005917023333 0.002979283333 -1 2112.082516
0.004449073333 0.006489046667 -1 2121.290055
-0.006732176667 -0.006615256667 -1 2105.813582
-0.00327542 -0.00452604 -1 2121.931227
-0.006591576667 -0.00456366 -1 2153.655555
-0.005382936667 -0.00740906 -1 2095.894371
-0.004900296667 -0.00347101 -1 2108.680907
-0.00361746 -0.006412493333 -1 2111.22142
0.005701736667 -0.007911023333 -1 2100.9231
0.004233586667 -0.003335666667 -1 2136.770285
0.003540416667 -0.0074422 -1 2105.714571
0.007312796667 -0.00626951 -1 2129.706182
0.00266397 -0.00520083 -1 2102.835775
0.006721093333 -0.003935523333 -1 2132.30242
-0.0127676 -0.0193479 -1 2110.037544
-0.005154636667 -0.0163697 -1 2141.89452
-0.00481788 -0.02012976667 -1 2107.788058
-0.00653798 -0.0223109 -1 2106.89618
0.02274326667 0.005407036667 -1 2107.160473
0.02160833333 0.006365513333 -1 2110.732389
-0.02132096667 0.007653426667 -1 2100.550713
-0.02225303333 0.006048843333 -1 2102.365157
-0.0228329 -0.00522625 -1 2108.017153
0.0222217 -0.005900066667 -1 2104.840104
0.02340346667 -0.002533313333 -1 2102.450325
0.02289816667 -0.00527143 -1 2107.857845
0.02308203333 -0.004421353333 -1 2109.185712
0.002432583333 -0.02320233333 -1 2090.837601
0.004961756667 -0.02245153333 -1 2102.24597
0.00479776 -0.0231832 -1 2105.984869
0.008577656667 0.02196236667 -1 2103.422303
0.00700894 0.02178773333 -1 2102.334958
-0.01406863333 0.01867456667 -1 2109.053835
-0.0129353 0.01707743333 -1 2130.255124
0.004265856667 -0.0232942 -1 2102.496463
0.003902943333 -0.02197026667 -1 2093.140122
-0.01002782667 -0.02038196667 -1 2113.202241
-0.017921 0.01487853333 -1 2113.729404
-0.0174762 0.01224473333 -1 2109.643883
0.003964803114 -0.02639011143 -1 2096.0308
-0.004069797398 -0.02631451343 -1 2104.781879
-0.005587385332 -0.02603773466 -1 2100.705099
0.02345098314 -0.01260386162 -1 2097.088454
0.02515243023 -0.008677880586 -1 2097.158265
-0.02527551201 0.008482418524 -1 2104.395865
-0.0262196907 -0.00473641603 -1 2111.036893
-0.02644748794 -0.00319070719 -1 2107.795663
-0.02595199449 -0.006095163473 -1 2112.712889
-0.02635620825 0.003611698982 -1 2111.227995
-0.0260436287 0.005564332273 -1 2101.138435
0.009800471483 0.02484759365 -1 2103.652214
0.008871268646 0.02509499433 -1 2102.785736
0.02638125415 0.003716231986 -1 2102.211241
0.02659630511 0.001463067807 -1 2104.799434
0.02616526182 -0.004736809547 -1 2096.257608
0.02641283363 -0.003320164571 -1 2097.09463
0.02597343644 -0.006198002457 -1 2097.554424
-0.02026868169 0.01727993241 -1 2108.10003
-0.01933532307 0.01834182102 -1 2100.055543
-0.01830375418 0.01936733349 -1 2098.69803
-0.01724079762 0.02035917358 -1 2116.340714
-0.01740141346 -0.02021762268 -1 2103.970399
-0.01840447888 -0.0193042407 -1 2103.363435
-0.01930090847 -0.01838506068 -1 2102.968934
-0.02021488479 -0.01735760906 -1 2105.188476
0.01928839035 -0.01839715604 -1 2098.724795
0.018328002 -0.01935309696 -1 2098.749288
0.01572213978 -0.02153147549 -1 2106.08866
0.01714160576 -0.02037408147 -1 2104.200079
0.02021138367 -0.01734073951 -1 2101.243489
0.02131756796 -0.01590485606 -1 2106.764689
0.02247819507 -0.01432112142 -1 2097.743109
-0.02141596234 -0.01576115213 -1 2118.111065
-0.01596333157 -0.02132117676 -1 2114.085801
-0.02267587214 -0.0140474666 -1 2115.124321
-0.02137500036 0.01581968089 -1 2122.892027
-0.02261103392 0.01415753548 -1 2121.730392
-0.01570893067 0.02142628128 -1 2118.067558
-0.01401012174 0.0226993843 -1 2117.35769
0.02022738907 0.01735949223 -1 2105.808062
0.02134907127 0.01587728372 -1 2109.835934
0.02259163897 0.01410799648 -1 2106.605809
0.0160090021 0.0212168635 -1 2102.955683
0.01741830906 0.02016917809 -1 2099.019158
0.01435078748 0.02243196803 -1 2100.042649
0.0249197318 0.009352550402 -1 2105.32259
0.02553798605 -0.007558888075 -1 2096.435975
0.02657832144 -0.001795668059 -1 2098.907164
0.02666568295 -0.0003284361344 -1 2101.925125
0.02547608833 0.007744744329 -1 2107.367507
0.02595156667 0.005954227552 -1 2103.223396
0.01845812701 0.01925414667 -1 2098.391611
0.01934984107 0.01835674726 -1 2098.982484
0.007200406802 0.02561054072 -1 2117.101749
0.005047099085 0.02609764807 -1 2116.874191
0.002993496111 0.02644232312 -1 2110.272331
0.02348652567 0.01259983277 -1 2103.907543
-0.002595189228 0.02656125316 -1 2109.671506
-0.004084133173 0.02630373031 -1 2110.090996
-0.005682664736 0.02605324143 -1 2106.08153
-0.0085748103 0.02525063857 -1 2105.63993
-0.007237934939 0.0256140429 -1 2104.51591
-0.02569451464 0.006958246063 -1 2100.423263
-0.02514777966 -0.008802397821 -1 2107.138661
-0.02556401082 -0.007495630997 -1 2107.406205
-0.007114195257 -0.02566663695 -1 2100.446018
-0.008819456772 -0.02508938363 -1 2107.848203
-0.0009947787293 -0.02665323261 -1 2099.239797
0.0009708377723 -0.02664953435 -1 2096.8534
0.00579409444 -0.02608334672 -1 2102.778833
0.007146929583 -0.02563999647 -1 2100.191789
0.008853051948 -0.02511286213 -1 2102.160978
0.01408650223 -0.0225783804 -1 2104.953351
0.01257100227 -0.02350854145 -1 2095.778894
-0.01434808751 -0.02243833259 -1 2105.896948
-0.01290354951 -0.02327858019 -1 2101.69159
0.004853615537 -0.02617376116 -1 2100.835929
-0.002580675005 -0.02649789847 -1 2104.68179
-0.02348365743 -0.01264383535 -1 2110.037588
-0.02353354405 0.01243272486 -1 2091.991881
-0.01243733264 0.02356992896 -1 2109.410493
0.01271129809 0.02341524062 -1 2098.71662
0.0009208217003 0.02668736542 -1 2108.445454
-0.0009322715882 0.02665822304 -1 2107.40726
-0.02664409789 0.001241258519 -1 2109.067737
-0.02661325714 -0.001074743236 -1 2115.126546
0.01101342104 0.0241650689 -1 2100.572768
0.02426432093 0.0110998252 -1 2107.85316
-0.009842084536 0.02470935085 -1 2110.905483
-0.01110074914 0.02421489192 -1 2109.414389
-0.02438041523 0.01082068409 -1 2104.295711
-0.02461028342 -0.0100872063 -1 2111.197014
-0.02412717026 -0.01139105297 -1 2110.592561
0.02428681803 -0.01091006081 -1 2094.88956
0.02480955551 -0.009716136429 -1 2095.152889
0.01131429131 -0.02414312429 -1 2101.223448
0.01023261164 -0.02460163277 -1 2102.408409
-0.01037306692 -0.02457419942 -1 2103.587309
-0.01157551459 -0.02402133207 -1 2102.860573
-0.02470498609 0.009634382738 -1 2104.421552
0.002758032806 -0.02651083612 -1 2097.400678
0.004760318503 -0.03097056805 -1 2093.820806
-0.004987896161 -0.03095082934 -1 2105.393164
-0.006755276255 -0.030596909 -1 2100.636239
0.02764425078 -0.01473791691 -1 2101.078165
0.02962337553 -0.01017978921 -1 2100.347292
-0.02966328035 0.01009144727 -1 2105.254164
-0.03084653108 -0.005617333344 -1 2106.483265
-0.03110847546 -0.003783365558 -1 2105.196859
-0.03050149227 -0.007257262754 -1 2108.887685
-0.03100175463 0.004321504531 -1 2107.421329
-0.03066047329 0.006578143507 -1 2101.167157
0.01172750264 0.02908896105 -1 2099.224391
0.01061985347 0.02948050214 -1 2098.672456
0.03104867448 0.004350981198 -1 2104.232972
0.03129423264 0.001694180248 -1 2104.704294
0.03086048905 -0.005448402925 -1 2100.374339
0.03110552183 -0.003838973017 -1 2101.146561
0.03051628165 -0.00719039764 -1 2103.00869
-0.0238699175 0.02033469333 -1 2103.448403
-0.02272774159 0.02159166501 -1 2102.5462
-0.02150362325 0.02280163094 -1 2103.451815
-0.02018058419 0.02398421719 -1 2102.991348
-0.02043176934 -0.02377263905 -1 2093.050712
-0.02166942708 -0.02266135245 -1 2133.550797
-0.02276548765 -0.02156221511 -1 2122.709948
-0.02384815037 -0.02032700511 -1 2111.956823
0.02268644716 -0.02162754441 -1 2098.56576
0.02154575395 -0.02276821358 -1 2099.366005
0.0183798341 -0.0253449385 -1 2100.821019
0.02013310182 -0.02401484486 -1 2101.474049
0.02382551902 -0.02038792184 -1 2099.593051
0.02515157995 -0.01869928901 -1 2104.499084
0.02642113128 -0.01679082355 -1 2101.599087
-0.02524426509 -0.01851648872 -1 2115.184803
-0.01871176739 -0.02513030871 -1 2107.741401
-0.02664795704 -0.01650248275 -1 2118.444511
-0.02511759736 0.01867334913 -1 2106.507096
-0.02648875422 0.01671558285 -1 2103.562724
-0.01845391244 0.02529330974 -1 2106.09774
-0.01646438297 0.02664163988 -1 2111.434978
0.02387315777 0.0203366343 -1 2099.987802
0.0251955093 0.01858159568 -1 2103.417268
0.02660732848 0.01654208011 -1 2112.71085
0.01882188866 0.02507281415 -1 2101.337968
0.02039116202 0.02377403513 -1 2098.002959
0.01684411157 0.02636626155 -1 2101.551698
0.02938312794 0.01088263486 -1 2097.873347
0.03004419333 -0.008898078392 -1 2098.555564
0.03125175896 -0.00208312431 -1 2101.498546
0.03132509101 -0.0003879252352 -1 2100.509057
0.02999684262 0.009010697931 -1 2101.260856
0.03053308778 0.006970881809 -1 2102.959785
0.02164559964 0.02269076865 -1 2096.488145
0.02276195903 0.02157988897 -1 2097.046018
0.008590347538 0.03007800077 -1 2097.794086
0.006055093768 0.03072254113 -1 2098.150972
0.0036578921 0.03111656775 -1 2106.832709
0.02765730999 0.01478210096 -1 2096.963043
-0.00321703715 0.03113021318 -1 2105.869046
-0.004932629202 0.03092755772 -1 2105.519489
-0.006849073427 0.0306018551 -1 2106.93645
-0.01033422231 0.02961692762 -1 2106.053447
-0.008743731126 0.03008244266 -1 2104.513536
-0.03023482079 0.008254387026 -1 2101.447656
-0.02954329043 -0.01043673691 -1 2104.011164
-0.03002566575 -0.008921946112 -1 2103.095153
-0.00856652249 -0.0301545327 -1 2101.222402
-0.01046804252 -0.02949284533 -1 2108.314969
-0.00131442531 -0.03132136502 -1 2095.312734
0.001128845425 -0.03133043399 -1 2093.930173
0.006884132163 -0.03058943808 -1 2103.508273
0.008546285284 -0.03013716348 -1 2099.794495
0.01046984594 -0.02950075932 -1 2102.100796
0.01652816068 -0.02660204 -1 2102.717263
0.01480154995 -0.02764118199 -1 2097.593158
-0.01678415533 -0.02645095388 -1 2104.539869
-0.0151039799 -0.02746229516 -1 2101.384631
0.005782714894 -0.0307837008 -1 2100.569184
-0.003232896173 -0.03117401701 -1 2103.574283
-0.02764000221 -0.01483381945 -1 2097.849389
-0.02760707253 0.01470452187 -1 2102.111305
-0.01466779282 0.02771247669 -1 2099.36511
0.0149630068 0.027485124 -1 2099.05838
0.00107926563 0.03133823292 -1 2104.469922
-0.001250689762 0.03132310429 -1 2102.766391
-0.03129418215 0.001491839678 -1 2105.526114
-0.03128519004 -0.001312000934 -1 2107.919793
0.01314207488 0.02841629388 -1 2101.877939
0.0285209212 0.01294399806 -1 2105.367192
-0.01179296731 0.02901283581 -1 2106.77242
-0.01315419601 0.0284760293 -1 2103.604744
-0.02862585333 0.01279284598 -1 2103.017761
-0.02900052467 -0.01189518411 -1 2106.790585
-0.02839021512 -0.01333902307 -1 2104.466757
0.02863402436 -0.0126848679 -1 2097.915512
0.02919103497 -0.01131083461 -1 2098.379143
0.0133446171 -0.02839912481 -1 2100.1254
0.01207543835 -0.02899050914 -1 2102.995053
-0.01213076242 -0.02889832504 -1 2102.545185
-0.0135314094 -0.02828423933 -1 2102.777742
-0.0291505992 0.01145599712 -1 2103.292813
0.003328299931 -0.03117780851 -1 2094.702335
0.005446080987 -0.03484744009 -1 2091.221534
-0.005775044779 -0.03477021661 -1 2110.767573
-0.007762766108 -0.03440668363 -1 2101.768823
0.03111835057 -0.01647640954 -1 2101.357058
0.03340074044 -0.01139516858 -1 2101.851184
-0.03332675397 0.01147008977 -1 2101.99039
-0.03471177795 -0.006253631417 -1 2107.170778
-0.03501186732 -0.004161852763 -1 2103.411336
-0.03430875684 -0.008155689242 -1 2111.026438
-0.0348999177 0.004865029099 -1 2118.46703
-0.03448686638 0.007398171595 -1 2098.205888
0.01324962507 0.0326598642 -1 2097.303965
0.01202562297 0.03314042455 -1 2096.901316
0.0349253126 0.00484911449 -1 2099.507609
0.03520342522 0.001877753837 -1 2106.12251
0.03474411875 -0.006086822938 -1 2097.236528
0.03499311586 -0.004278604842 -1 2096.918067
0.03430279765 -0.007993704171 -1 2104.32607
-0.02687397618 0.02283630734 -1 2109.116877
-0.02556593355 0.02427889709 -1 2097.230669
-0.02421469945 0.02563076384 -1 2098.19059
-0.02270528608 0.02696173587 -1 2104.66021
-0.02295848295 -0.02676350374 -1 2102.861906
-0.02436884847 -0.02549326541 -1 2099.401698
-0.02560887028 -0.02424758146 -1 2100.163521
-0.02688620487 -0.02283771562 -1 2104.55776
0.02551444865 -0.02434349491 -1 2096.367833
0.02423752885 -0.02561977926 -1 2096.736052
0.0206575236 -0.02858171385 -1 2101.100708
0.02262108904 -0.02700918126 -1 2102.872962
0.02674940008 -0.02293417046 -1 2101.560505
0.02829311088 -0.02103349248 -1 2105.544731
0.02979189617 -0.01886510748 -1 2104.257993
-0.02846784258 -0.02077666893 -1 2106.987198
-0.02099943386 -0.02830865364 -1 2113.673974
-0.03000250386 -0.01852137528 -1 2111.307434
-0.02833259584 0.02098257028 -1 2110.740115
-0.02979086994 0.01879697082 -1 2107.624964
-0.0207521154 0.02850060345 -1 2105.791282
-0.01853029861 0.02999113022 -1 2113.240091
0.02686064666 0.02281809962 -1 2104.195637
0.02841708093 0.02087212065 -1 2105.816047
0.02999187951 0.01855080344 -1 2114.849421
0.021090449 0.02826052229 -1 2104.732041
0.02291766705 0.02679032685 -1 2101.288312
0.01887022414 0.02975264682 -1 2103.018231
0.03309298325 0.0121050817 -1 2097.729746
0.03384625203 -0.009903759303 -1 2098.600087
0.03519192358 -0.002322944025 -1 2101.082008
0.03527541025 -0.000423416702 -1 2100.473397
0.03376546199 0.01007142604 -1 2101.801566
0.03438390167 0.007836407691 -1 2102.5464
0.02430858141 0.02555588604 -1 2095.909103
0.0256007494 0.02427103192 -1 2096.94177
0.009714138892 0.03383283832 -1 2098.963537
0.006827754167 0.03456293564 -1 2099.043381
0.004135250145 0.03497898441 -1 2110.593699
0.03114933424 0.01654558948 -1 2098.10578
-0.003685928263 0.03504953304 -1 2106.306031
-0.005535806142 0.03483707342 -1 2107.023582
-0.007755677241 0.03440117341 -1 2108.619125
-0.01172692283 0.03324642363 -1 2106.393326
-0.009957392949 0.03382130484 -1 2104.591993
-0.03398535802 0.009365080599 -1 2098.701961
-0.033247529 -0.0117745048 -1 2104.807636
-0.03379530524 -0.01007072945 -1 2102.064927
-0.009822339061 -0.0338596633 -1 2099.907412
-0.0119019369 -0.03317800508 -1 2106.315883
-0.001573487188 -0.03522900661 -1 2096.473609
0.00126775221 -0.03523864139 -1 2094.846293
0.007776676044 -0.03439568375 -1 2098.301688
0.009669172761 -0.03389755094 -1 2098.423963
0.01180017222 -0.0332286646 -1 2102.368145
0.01856053586 -0.02998054543 -1 2103.780374
0.01665184017 -0.03109778898 -1 2099.876694
-0.01882341544 -0.02979921446 -1 2110.364503
-0.01693055357 -0.0309158664 -1 2102.700267
0.006560826347 -0.03467064158 -1 2099.039805